n -t 0 -s 0 -S DLABEL -l "A" -L ""
n -t 0 -s 1 -S DLABEL -l "B" -L ""
n -t 0 -s 2 -S DLABEL -l "C" -L ""
n -t 0 -s 3 -S DLABEL -l "D" -L ""
V -t * -v 1.0a5 -a 0
A -t * -n 1 -p 0 -o 0x7fffffff -c 30 -a 1
A -t * -h 1 -m 1073741823 -s 0
c -t * -i 1 -n blue
c -t * -i 2 -n green
c -t * -i 3 -n red
n -t * -a 0 -s 0 -S UP -v circle -c black -i black
n -t * -a 1 -s 1 -S UP -v circle -c black -i black
n -t * -a 2 -s 2 -S UP -v circle -c black -i black
n -t * -a 3 -s 3 -S UP -v circle -c black -i black
l -t * -s 0 -d 3 -S UP -r 10000000 -D 0.002 -c black
l -t * -s 2 -d 3 -S UP -r 10000000 -D 0.002 -c black
l -t * -s 3 -d 1 -S UP -r 10000000 -D 0.002 -c black
+ -t 0 -s 0 -d 3 -p tcp -e 40 -c 0 -i 0 -a 0 -x {0.0 1.0 0 ------- null}
- -t 0 -s 0 -d 3 -p tcp -e 40 -c 0 -i 0 -a 0 -x {0.0 1.0 0 ------- null}
h -t 0 -s 0 -d 3 -p tcp -e 40 -c 0 -i 0 -a 0 -x {0.0 1.0 -1 ------- null}
r -t 0.002032 -s 0 -d 3 -p tcp -e 40 -c 0 -i 0 -a 0 -x {0.0 1.0 0 ------- null}
+ -t 0.002032 -s 3 -d 1 -p tcp -e 40 -c 0 -i 0 -a 0 -x {0.0 1.0 0 ------- null}
- -t 0.002032 -s 3 -d 1 -p tcp -e 40 -c 0 -i 0 -a 0 -x {0.0 1.0 0 ------- null}
h -t 0.002032 -s 3 -d 1 -p tcp -e 40 -c 0 -i 0 -a 0 -x {0.0 1.0 -1 ------- null}
r -t 0.004064 -s 3 -d 1 -p tcp -e 40 -c 0 -i 0 -a 0 -x {0.0 1.0 0 ------- null}
+ -t 0.004064 -s 1 -d 3 -p ack -e 40 -c 0 -i 1 -a 0 -x {1.0 0.0 0 ------- null}
- -t 0.004064 -s 1 -d 3 -p ack -e 40 -c 0 -i 1 -a 0 -x {1.0 0.0 0 ------- null}
h -t 0.004064 -s 1 -d 3 -p ack -e 40 -c 0 -i 1 -a 0 -x {1.0 0.0 -1 ------- null}
r -t 0.006096 -s 1 -d 3 -p ack -e 40 -c 0 -i 1 -a 0 -x {1.0 0.0 0 ------- null}
+ -t 0.006096 -s 3 -d 0 -p ack -e 40 -c 0 -i 1 -a 0 -x {1.0 0.0 0 ------- null}
- -t 0.006096 -s 3 -d 0 -p ack -e 40 -c 0 -i 1 -a 0 -x {1.0 0.0 0 ------- null}
h -t 0.006096 -s 3 -d 0 -p ack -e 40 -c 0 -i 1 -a 0 -x {1.0 0.0 -1 ------- null}
r -t 0.008128 -s 3 -d 0 -p ack -e 40 -c 0 -i 1 -a 0 -x {1.0 0.0 0 ------- null}
+ -t 0.008128 -s 0 -d 3 -p tcp -e 1040 -c 0 -i 2 -a 0 -x {0.0 1.0 1 ------- null}
- -t 0.008128 -s 0 -d 3 -p tcp -e 1040 -c 0 -i 2 -a 0 -x {0.0 1.0 1 ------- null}
h -t 0.008128 -s 0 -d 3 -p tcp -e 1040 -c 0 -i 2 -a 0 -x {0.0 1.0 -1 ------- null}
+ -t 0.008128 -s 0 -d 3 -p tcp -e 1040 -c 0 -i 3 -a 0 -x {0.0 1.0 2 ------- null}
- -t 0.00896 -s 0 -d 3 -p tcp -e 1040 -c 0 -i 3 -a 0 -x {0.0 1.0 2 ------- null}
h -t 0.00896 -s 0 -d 3 -p tcp -e 1040 -c 0 -i 3 -a 0 -x {0.0 1.0 -1 ------- null}
r -t 0.01096 -s 0 -d 3 -p tcp -e 1040 -c 0 -i 2 -a 0 -x {0.0 1.0 1 ------- null}
+ -t 0.01096 -s 3 -d 1 -p tcp -e 1040 -c 0 -i 2 -a 0 -x {0.0 1.0 1 ------- null}
- -t 0.01096 -s 3 -d 1 -p tcp -e 1040 -c 0 -i 2 -a 0 -x {0.0 1.0 1 ------- null}
h -t 0.01096 -s 3 -d 1 -p tcp -e 1040 -c 0 -i 2 -a 0 -x {0.0 1.0 -1 ------- null}
r -t 0.011792 -s 0 -d 3 -p tcp -e 1040 -c 0 -i 3 -a 0 -x {0.0 1.0 2 ------- null}
+ -t 0.011792 -s 3 -d 1 -p tcp -e 1040 -c 0 -i 3 -a 0 -x {0.0 1.0 2 ------- null}
- -t 0.011792 -s 3 -d 1 -p tcp -e 1040 -c 0 -i 3 -a 0 -x {0.0 1.0 2 ------- null}
h -t 0.011792 -s 3 -d 1 -p tcp -e 1040 -c 0 -i 3 -a 0 -x {0.0 1.0 -1 ------- null}
r -t 0.013792 -s 3 -d 1 -p tcp -e 1040 -c 0 -i 2 -a 0 -x {0.0 1.0 1 ------- null}
+ -t 0.013792 -s 1 -d 3 -p ack -e 40 -c 0 -i 4 -a 0 -x {1.0 0.0 1 ------- null}
- -t 0.013792 -s 1 -d 3 -p ack -e 40 -c 0 -i 4 -a 0 -x {1.0 0.0 1 ------- null}
h -t 0.013792 -s 1 -d 3 -p ack -e 40 -c 0 -i 4 -a 0 -x {1.0 0.0 -1 ------- null}
r -t 0.014624 -s 3 -d 1 -p tcp -e 1040 -c 0 -i 3 -a 0 -x {0.0 1.0 2 ------- null}
+ -t 0.014624 -s 1 -d 3 -p ack -e 40 -c 0 -i 5 -a 0 -x {1.0 0.0 2 ------- null}
- -t 0.014624 -s 1 -d 3 -p ack -e 40 -c 0 -i 5 -a 0 -x {1.0 0.0 2 ------- null}
h -t 0.014624 -s 1 -d 3 -p ack -e 40 -c 0 -i 5 -a 0 -x {1.0 0.0 -1 ------- null}
r -t 0.015824 -s 1 -d 3 -p ack -e 40 -c 0 -i 4 -a 0 -x {1.0 0.0 1 ------- null}
+ -t 0.015824 -s 3 -d 0 -p ack -e 40 -c 0 -i 4 -a 0 -x {1.0 0.0 1 ------- null}
- -t 0.015824 -s 3 -d 0 -p ack -e 40 -c 0 -i 4 -a 0 -x {1.0 0.0 1 ------- null}
h -t 0.015824 -s 3 -d 0 -p ack -e 40 -c 0 -i 4 -a 0 -x {1.0 0.0 -1 ------- null}
r -t 0.016656 -s 1 -d 3 -p ack -e 40 -c 0 -i 5 -a 0 -x {1.0 0.0 2 ------- null}
+ -t 0.016656 -s 3 -d 0 -p ack -e 40 -c 0 -i 5 -a 0 -x {1.0 0.0 2 ------- null}
- -t 0.016656 -s 3 -d 0 -p ack -e 40 -c 0 -i 5 -a 0 -x {1.0 0.0 2 ------- null}
h -t 0.016656 -s 3 -d 0 -p ack -e 40 -c 0 -i 5 -a 0 -x {1.0 0.0 -1 ------- null}
r -t 0.017856 -s 3 -d 0 -p ack -e 40 -c 0 -i 4 -a 0 -x {1.0 0.0 1 ------- null}
+ -t 0.017856 -s 0 -d 3 -p tcp -e 1040 -c 0 -i 6 -a 0 -x {0.0 1.0 3 ------- null}
- -t 0.017856 -s 0 -d 3 -p tcp -e 1040 -c 0 -i 6 -a 0 -x {0.0 1.0 3 ------- null}
h -t 0.017856 -s 0 -d 3 -p tcp -e 1040 -c 0 -i 6 -a 0 -x {0.0 1.0 -1 ------- null}
+ -t 0.017856 -s 0 -d 3 -p tcp -e 1040 -c 0 -i 7 -a 0 -x {0.0 1.0 4 ------- null}
r -t 0.018688 -s 3 -d 0 -p ack -e 40 -c 0 -i 5 -a 0 -x {1.0 0.0 2 ------- null}
+ -t 0.018688 -s 0 -d 3 -p tcp -e 1040 -c 0 -i 8 -a 0 -x {0.0 1.0 5 ------- null}
+ -t 0.018688 -s 0 -d 3 -p tcp -e 1040 -c 0 -i 9 -a 0 -x {0.0 1.0 6 ------- null}
- -t 0.018688 -s 0 -d 3 -p tcp -e 1040 -c 0 -i 7 -a 0 -x {0.0 1.0 4 ------- null}
h -t 0.018688 -s 0 -d 3 -p tcp -e 1040 -c 0 -i 7 -a 0 -x {0.0 1.0 -1 ------- null}
- -t 0.01952 -s 0 -d 3 -p tcp -e 1040 -c 0 -i 8 -a 0 -x {0.0 1.0 5 ------- null}
h -t 0.01952 -s 0 -d 3 -p tcp -e 1040 -c 0 -i 8 -a 0 -x {0.0 1.0 -1 ------- null}
- -t 0.020352 -s 0 -d 3 -p tcp -e 1040 -c 0 -i 9 -a 0 -x {0.0 1.0 6 ------- null}
h -t 0.020352 -s 0 -d 3 -p tcp -e 1040 -c 0 -i 9 -a 0 -x {0.0 1.0 -1 ------- null}
r -t 0.020688 -s 0 -d 3 -p tcp -e 1040 -c 0 -i 6 -a 0 -x {0.0 1.0 3 ------- null}
+ -t 0.020688 -s 3 -d 1 -p tcp -e 1040 -c 0 -i 6 -a 0 -x {0.0 1.0 3 ------- null}
- -t 0.020688 -s 3 -d 1 -p tcp -e 1040 -c 0 -i 6 -a 0 -x {0.0 1.0 3 ------- null}
h -t 0.020688 -s 3 -d 1 -p tcp -e 1040 -c 0 -i 6 -a 0 -x {0.0 1.0 -1 ------- null}
r -t 0.02152 -s 0 -d 3 -p tcp -e 1040 -c 0 -i 7 -a 0 -x {0.0 1.0 4 ------- null}
+ -t 0.02152 -s 3 -d 1 -p tcp -e 1040 -c 0 -i 7 -a 0 -x {0.0 1.0 4 ------- null}
- -t 0.02152 -s 3 -d 1 -p tcp -e 1040 -c 0 -i 7 -a 0 -x {0.0 1.0 4 ------- null}
h -t 0.02152 -s 3 -d 1 -p tcp -e 1040 -c 0 -i 7 -a 0 -x {0.0 1.0 -1 ------- null}
r -t 0.022352 -s 0 -d 3 -p tcp -e 1040 -c 0 -i 8 -a 0 -x {0.0 1.0 5 ------- null}
+ -t 0.022352 -s 3 -d 1 -p tcp -e 1040 -c 0 -i 8 -a 0 -x {0.0 1.0 5 ------- null}
- -t 0.022352 -s 3 -d 1 -p tcp -e 1040 -c 0 -i 8 -a 0 -x {0.0 1.0 5 ------- null}
h -t 0.022352 -s 3 -d 1 -p tcp -e 1040 -c 0 -i 8 -a 0 -x {0.0 1.0 -1 ------- null}
r -t 0.023184 -s 0 -d 3 -p tcp -e 1040 -c 0 -i 9 -a 0 -x {0.0 1.0 6 ------- null}
+ -t 0.023184 -s 3 -d 1 -p tcp -e 1040 -c 0 -i 9 -a 0 -x {0.0 1.0 6 ------- null}
- -t 0.023184 -s 3 -d 1 -p tcp -e 1040 -c 0 -i 9 -a 0 -x {0.0 1.0 6 ------- null}
h -t 0.023184 -s 3 -d 1 -p tcp -e 1040 -c 0 -i 9 -a 0 -x {0.0 1.0 -1 ------- null}
r -t 0.02352 -s 3 -d 1 -p tcp -e 1040 -c 0 -i 6 -a 0 -x {0.0 1.0 3 ------- null}
+ -t 0.02352 -s 1 -d 3 -p ack -e 40 -c 0 -i 10 -a 0 -x {1.0 0.0 3 ------- null}
- -t 0.02352 -s 1 -d 3 -p ack -e 40 -c 0 -i 10 -a 0 -x {1.0 0.0 3 ------- null}
h -t 0.02352 -s 1 -d 3 -p ack -e 40 -c 0 -i 10 -a 0 -x {1.0 0.0 -1 ------- null}
r -t 0.024352 -s 3 -d 1 -p tcp -e 1040 -c 0 -i 7 -a 0 -x {0.0 1.0 4 ------- null}
+ -t 0.024352 -s 1 -d 3 -p ack -e 40 -c 0 -i 11 -a 0 -x {1.0 0.0 4 ------- null}
- -t 0.024352 -s 1 -d 3 -p ack -e 40 -c 0 -i 11 -a 0 -x {1.0 0.0 4 ------- null}
h -t 0.024352 -s 1 -d 3 -p ack -e 40 -c 0 -i 11 -a 0 -x {1.0 0.0 -1 ------- null}
r -t 0.025184 -s 3 -d 1 -p tcp -e 1040 -c 0 -i 8 -a 0 -x {0.0 1.0 5 ------- null}
+ -t 0.025184 -s 1 -d 3 -p ack -e 40 -c 0 -i 12 -a 0 -x {1.0 0.0 5 ------- null}
- -t 0.025184 -s 1 -d 3 -p ack -e 40 -c 0 -i 12 -a 0 -x {1.0 0.0 5 ------- null}
h -t 0.025184 -s 1 -d 3 -p ack -e 40 -c 0 -i 12 -a 0 -x {1.0 0.0 -1 ------- null}
r -t 0.025552 -s 1 -d 3 -p ack -e 40 -c 0 -i 10 -a 0 -x {1.0 0.0 3 ------- null}
+ -t 0.025552 -s 3 -d 0 -p ack -e 40 -c 0 -i 10 -a 0 -x {1.0 0.0 3 ------- null}
- -t 0.025552 -s 3 -d 0 -p ack -e 40 -c 0 -i 10 -a 0 -x {1.0 0.0 3 ------- null}
h -t 0.025552 -s 3 -d 0 -p ack -e 40 -c 0 -i 10 -a 0 -x {1.0 0.0 -1 ------- null}
r -t 0.026016 -s 3 -d 1 -p tcp -e 1040 -c 0 -i 9 -a 0 -x {0.0 1.0 6 ------- null}
+ -t 0.026016 -s 1 -d 3 -p ack -e 40 -c 0 -i 13 -a 0 -x {1.0 0.0 6 ------- null}
- -t 0.026016 -s 1 -d 3 -p ack -e 40 -c 0 -i 13 -a 0 -x {1.0 0.0 6 ------- null}
h -t 0.026016 -s 1 -d 3 -p ack -e 40 -c 0 -i 13 -a 0 -x {1.0 0.0 -1 ------- null}
r -t 0.026384 -s 1 -d 3 -p ack -e 40 -c 0 -i 11 -a 0 -x {1.0 0.0 4 ------- null}
+ -t 0.026384 -s 3 -d 0 -p ack -e 40 -c 0 -i 11 -a 0 -x {1.0 0.0 4 ------- null}
- -t 0.026384 -s 3 -d 0 -p ack -e 40 -c 0 -i 11 -a 0 -x {1.0 0.0 4 ------- null}
h -t 0.026384 -s 3 -d 0 -p ack -e 40 -c 0 -i 11 -a 0 -x {1.0 0.0 -1 ------- null}
r -t 0.027216 -s 1 -d 3 -p ack -e 40 -c 0 -i 12 -a 0 -x {1.0 0.0 5 ------- null}
+ -t 0.027216 -s 3 -d 0 -p ack -e 40 -c 0 -i 12 -a 0 -x {1.0 0.0 5 ------- null}
- -t 0.027216 -s 3 -d 0 -p ack -e 40 -c 0 -i 12 -a 0 -x {1.0 0.0 5 ------- null}
h -t 0.027216 -s 3 -d 0 -p ack -e 40 -c 0 -i 12 -a 0 -x {1.0 0.0 -1 ------- null}
r -t 0.027584 -s 3 -d 0 -p ack -e 40 -c 0 -i 10 -a 0 -x {1.0 0.0 3 ------- null}
+ -t 0.027584 -s 0 -d 3 -p tcp -e 1040 -c 0 -i 14 -a 0 -x {0.0 1.0 7 ------- null}
- -t 0.027584 -s 0 -d 3 -p tcp -e 1040 -c 0 -i 14 -a 0 -x {0.0 1.0 7 ------- null}
h -t 0.027584 -s 0 -d 3 -p tcp -e 1040 -c 0 -i 14 -a 0 -x {0.0 1.0 -1 ------- null}
+ -t 0.027584 -s 0 -d 3 -p tcp -e 1040 -c 0 -i 15 -a 0 -x {0.0 1.0 8 ------- null}
r -t 0.028048 -s 1 -d 3 -p ack -e 40 -c 0 -i 13 -a 0 -x {1.0 0.0 6 ------- null}
+ -t 0.028048 -s 3 -d 0 -p ack -e 40 -c 0 -i 13 -a 0 -x {1.0 0.0 6 ------- null}
- -t 0.028048 -s 3 -d 0 -p ack -e 40 -c 0 -i 13 -a 0 -x {1.0 0.0 6 ------- null}
h -t 0.028048 -s 3 -d 0 -p ack -e 40 -c 0 -i 13 -a 0 -x {1.0 0.0 -1 ------- null}
r -t 0.028416 -s 3 -d 0 -p ack -e 40 -c 0 -i 11 -a 0 -x {1.0 0.0 4 ------- null}
+ -t 0.028416 -s 0 -d 3 -p tcp -e 1040 -c 0 -i 16 -a 0 -x {0.0 1.0 9 ------- null}
+ -t 0.028416 -s 0 -d 3 -p tcp -e 1040 -c 0 -i 17 -a 0 -x {0.0 1.0 10 ------- null}
- -t 0.028416 -s 0 -d 3 -p tcp -e 1040 -c 0 -i 15 -a 0 -x {0.0 1.0 8 ------- null}
h -t 0.028416 -s 0 -d 3 -p tcp -e 1040 -c 0 -i 15 -a 0 -x {0.0 1.0 -1 ------- null}
r -t 0.029248 -s 3 -d 0 -p ack -e 40 -c 0 -i 12 -a 0 -x {1.0 0.0 5 ------- null}
+ -t 0.029248 -s 0 -d 3 -p tcp -e 1040 -c 0 -i 18 -a 0 -x {0.0 1.0 11 ------- null}
+ -t 0.029248 -s 0 -d 3 -p tcp -e 1040 -c 0 -i 19 -a 0 -x {0.0 1.0 12 ------- null}
- -t 0.029248 -s 0 -d 3 -p tcp -e 1040 -c 0 -i 16 -a 0 -x {0.0 1.0 9 ------- null}
h -t 0.029248 -s 0 -d 3 -p tcp -e 1040 -c 0 -i 16 -a 0 -x {0.0 1.0 -1 ------- null}
r -t 0.03008 -s 3 -d 0 -p ack -e 40 -c 0 -i 13 -a 0 -x {1.0 0.0 6 ------- null}
+ -t 0.03008 -s 0 -d 3 -p tcp -e 1040 -c 0 -i 20 -a 0 -x {0.0 1.0 13 ------- null}
+ -t 0.03008 -s 0 -d 3 -p tcp -e 1040 -c 0 -i 21 -a 0 -x {0.0 1.0 14 ------- null}
- -t 0.03008 -s 0 -d 3 -p tcp -e 1040 -c 0 -i 17 -a 0 -x {0.0 1.0 10 ------- null}
h -t 0.03008 -s 0 -d 3 -p tcp -e 1040 -c 0 -i 17 -a 0 -x {0.0 1.0 -1 ------- null}
r -t 0.030416 -s 0 -d 3 -p tcp -e 1040 -c 0 -i 14 -a 0 -x {0.0 1.0 7 ------- null}
+ -t 0.030416 -s 3 -d 1 -p tcp -e 1040 -c 0 -i 14 -a 0 -x {0.0 1.0 7 ------- null}
- -t 0.030416 -s 3 -d 1 -p tcp -e 1040 -c 0 -i 14 -a 0 -x {0.0 1.0 7 ------- null}
h -t 0.030416 -s 3 -d 1 -p tcp -e 1040 -c 0 -i 14 -a 0 -x {0.0 1.0 -1 ------- null}
- -t 0.030912 -s 0 -d 3 -p tcp -e 1040 -c 0 -i 18 -a 0 -x {0.0 1.0 11 ------- null}
h -t 0.030912 -s 0 -d 3 -p tcp -e 1040 -c 0 -i 18 -a 0 -x {0.0 1.0 -1 ------- null}
r -t 0.031248 -s 0 -d 3 -p tcp -e 1040 -c 0 -i 15 -a 0 -x {0.0 1.0 8 ------- null}
+ -t 0.031248 -s 3 -d 1 -p tcp -e 1040 -c 0 -i 15 -a 0 -x {0.0 1.0 8 ------- null}
- -t 0.031248 -s 3 -d 1 -p tcp -e 1040 -c 0 -i 15 -a 0 -x {0.0 1.0 8 ------- null}
h -t 0.031248 -s 3 -d 1 -p tcp -e 1040 -c 0 -i 15 -a 0 -x {0.0 1.0 -1 ------- null}
- -t 0.031744 -s 0 -d 3 -p tcp -e 1040 -c 0 -i 19 -a 0 -x {0.0 1.0 12 ------- null}
h -t 0.031744 -s 0 -d 3 -p tcp -e 1040 -c 0 -i 19 -a 0 -x {0.0 1.0 -1 ------- null}
r -t 0.03208 -s 0 -d 3 -p tcp -e 1040 -c 0 -i 16 -a 0 -x {0.0 1.0 9 ------- null}
+ -t 0.03208 -s 3 -d 1 -p tcp -e 1040 -c 0 -i 16 -a 0 -x {0.0 1.0 9 ------- null}
- -t 0.03208 -s 3 -d 1 -p tcp -e 1040 -c 0 -i 16 -a 0 -x {0.0 1.0 9 ------- null}
h -t 0.03208 -s 3 -d 1 -p tcp -e 1040 -c 0 -i 16 -a 0 -x {0.0 1.0 -1 ------- null}
- -t 0.032576 -s 0 -d 3 -p tcp -e 1040 -c 0 -i 20 -a 0 -x {0.0 1.0 13 ------- null}
h -t 0.032576 -s 0 -d 3 -p tcp -e 1040 -c 0 -i 20 -a 0 -x {0.0 1.0 -1 ------- null}
r -t 0.032912 -s 0 -d 3 -p tcp -e 1040 -c 0 -i 17 -a 0 -x {0.0 1.0 10 ------- null}
+ -t 0.032912 -s 3 -d 1 -p tcp -e 1040 -c 0 -i 17 -a 0 -x {0.0 1.0 10 ------- null}
- -t 0.032912 -s 3 -d 1 -p tcp -e 1040 -c 0 -i 17 -a 0 -x {0.0 1.0 10 ------- null}
h -t 0.032912 -s 3 -d 1 -p tcp -e 1040 -c 0 -i 17 -a 0 -x {0.0 1.0 -1 ------- null}
r -t 0.033248 -s 3 -d 1 -p tcp -e 1040 -c 0 -i 14 -a 0 -x {0.0 1.0 7 ------- null}
+ -t 0.033248 -s 1 -d 3 -p ack -e 40 -c 0 -i 22 -a 0 -x {1.0 0.0 7 ------- null}
- -t 0.033248 -s 1 -d 3 -p ack -e 40 -c 0 -i 22 -a 0 -x {1.0 0.0 7 ------- null}
h -t 0.033248 -s 1 -d 3 -p ack -e 40 -c 0 -i 22 -a 0 -x {1.0 0.0 -1 ------- null}
- -t 0.033408 -s 0 -d 3 -p tcp -e 1040 -c 0 -i 21 -a 0 -x {0.0 1.0 14 ------- null}
h -t 0.033408 -s 0 -d 3 -p tcp -e 1040 -c 0 -i 21 -a 0 -x {0.0 1.0 -1 ------- null}
r -t 0.033744 -s 0 -d 3 -p tcp -e 1040 -c 0 -i 18 -a 0 -x {0.0 1.0 11 ------- null}
+ -t 0.033744 -s 3 -d 1 -p tcp -e 1040 -c 0 -i 18 -a 0 -x {0.0 1.0 11 ------- null}
- -t 0.033744 -s 3 -d 1 -p tcp -e 1040 -c 0 -i 18 -a 0 -x {0.0 1.0 11 ------- null}
h -t 0.033744 -s 3 -d 1 -p tcp -e 1040 -c 0 -i 18 -a 0 -x {0.0 1.0 -1 ------- null}
r -t 0.03408 -s 3 -d 1 -p tcp -e 1040 -c 0 -i 15 -a 0 -x {0.0 1.0 8 ------- null}
+ -t 0.03408 -s 1 -d 3 -p ack -e 40 -c 0 -i 23 -a 0 -x {1.0 0.0 8 ------- null}
- -t 0.03408 -s 1 -d 3 -p ack -e 40 -c 0 -i 23 -a 0 -x {1.0 0.0 8 ------- null}
h -t 0.03408 -s 1 -d 3 -p ack -e 40 -c 0 -i 23 -a 0 -x {1.0 0.0 -1 ------- null}
r -t 0.034576 -s 0 -d 3 -p tcp -e 1040 -c 0 -i 19 -a 0 -x {0.0 1.0 12 ------- null}
+ -t 0.034576 -s 3 -d 1 -p tcp -e 1040 -c 0 -i 19 -a 0 -x {0.0 1.0 12 ------- null}
- -t 0.034576 -s 3 -d 1 -p tcp -e 1040 -c 0 -i 19 -a 0 -x {0.0 1.0 12 ------- null}
h -t 0.034576 -s 3 -d 1 -p tcp -e 1040 -c 0 -i 19 -a 0 -x {0.0 1.0 -1 ------- null}
r -t 0.034912 -s 3 -d 1 -p tcp -e 1040 -c 0 -i 16 -a 0 -x {0.0 1.0 9 ------- null}
+ -t 0.034912 -s 1 -d 3 -p ack -e 40 -c 0 -i 24 -a 0 -x {1.0 0.0 9 ------- null}
- -t 0.034912 -s 1 -d 3 -p ack -e 40 -c 0 -i 24 -a 0 -x {1.0 0.0 9 ------- null}
h -t 0.034912 -s 1 -d 3 -p ack -e 40 -c 0 -i 24 -a 0 -x {1.0 0.0 -1 ------- null}
r -t 0.03528 -s 1 -d 3 -p ack -e 40 -c 0 -i 22 -a 0 -x {1.0 0.0 7 ------- null}
+ -t 0.03528 -s 3 -d 0 -p ack -e 40 -c 0 -i 22 -a 0 -x {1.0 0.0 7 ------- null}
- -t 0.03528 -s 3 -d 0 -p ack -e 40 -c 0 -i 22 -a 0 -x {1.0 0.0 7 ------- null}
h -t 0.03528 -s 3 -d 0 -p ack -e 40 -c 0 -i 22 -a 0 -x {1.0 0.0 -1 ------- null}
r -t 0.035408 -s 0 -d 3 -p tcp -e 1040 -c 0 -i 20 -a 0 -x {0.0 1.0 13 ------- null}
+ -t 0.035408 -s 3 -d 1 -p tcp -e 1040 -c 0 -i 20 -a 0 -x {0.0 1.0 13 ------- null}
- -t 0.035408 -s 3 -d 1 -p tcp -e 1040 -c 0 -i 20 -a 0 -x {0.0 1.0 13 ------- null}
h -t 0.035408 -s 3 -d 1 -p tcp -e 1040 -c 0 -i 20 -a 0 -x {0.0 1.0 -1 ------- null}
r -t 0.035744 -s 3 -d 1 -p tcp -e 1040 -c 0 -i 17 -a 0 -x {0.0 1.0 10 ------- null}
+ -t 0.035744 -s 1 -d 3 -p ack -e 40 -c 0 -i 25 -a 0 -x {1.0 0.0 10 ------- null}
- -t 0.035744 -s 1 -d 3 -p ack -e 40 -c 0 -i 25 -a 0 -x {1.0 0.0 10 ------- null}
h -t 0.035744 -s 1 -d 3 -p ack -e 40 -c 0 -i 25 -a 0 -x {1.0 0.0 -1 ------- null}
r -t 0.036112 -s 1 -d 3 -p ack -e 40 -c 0 -i 23 -a 0 -x {1.0 0.0 8 ------- null}
+ -t 0.036112 -s 3 -d 0 -p ack -e 40 -c 0 -i 23 -a 0 -x {1.0 0.0 8 ------- null}
- -t 0.036112 -s 3 -d 0 -p ack -e 40 -c 0 -i 23 -a 0 -x {1.0 0.0 8 ------- null}
h -t 0.036112 -s 3 -d 0 -p ack -e 40 -c 0 -i 23 -a 0 -x {1.0 0.0 -1 ------- null}
r -t 0.03624 -s 0 -d 3 -p tcp -e 1040 -c 0 -i 21 -a 0 -x {0.0 1.0 14 ------- null}
+ -t 0.03624 -s 3 -d 1 -p tcp -e 1040 -c 0 -i 21 -a 0 -x {0.0 1.0 14 ------- null}
- -t 0.03624 -s 3 -d 1 -p tcp -e 1040 -c 0 -i 21 -a 0 -x {0.0 1.0 14 ------- null}
h -t 0.03624 -s 3 -d 1 -p tcp -e 1040 -c 0 -i 21 -a 0 -x {0.0 1.0 -1 ------- null}
r -t 0.036576 -s 3 -d 1 -p tcp -e 1040 -c 0 -i 18 -a 0 -x {0.0 1.0 11 ------- null}
+ -t 0.036576 -s 1 -d 3 -p ack -e 40 -c 0 -i 26 -a 0 -x {1.0 0.0 11 ------- null}
- -t 0.036576 -s 1 -d 3 -p ack -e 40 -c 0 -i 26 -a 0 -x {1.0 0.0 11 ------- null}
h -t 0.036576 -s 1 -d 3 -p ack -e 40 -c 0 -i 26 -a 0 -x {1.0 0.0 -1 ------- null}
r -t 0.036944 -s 1 -d 3 -p ack -e 40 -c 0 -i 24 -a 0 -x {1.0 0.0 9 ------- null}
+ -t 0.036944 -s 3 -d 0 -p ack -e 40 -c 0 -i 24 -a 0 -x {1.0 0.0 9 ------- null}
- -t 0.036944 -s 3 -d 0 -p ack -e 40 -c 0 -i 24 -a 0 -x {1.0 0.0 9 ------- null}
h -t 0.036944 -s 3 -d 0 -p ack -e 40 -c 0 -i 24 -a 0 -x {1.0 0.0 -1 ------- null}
r -t 0.037312 -s 3 -d 0 -p ack -e 40 -c 0 -i 22 -a 0 -x {1.0 0.0 7 ------- null}
+ -t 0.037312 -s 0 -d 3 -p tcp -e 1040 -c 0 -i 27 -a 0 -x {0.0 1.0 15 ------- null}
- -t 0.037312 -s 0 -d 3 -p tcp -e 1040 -c 0 -i 27 -a 0 -x {0.0 1.0 15 ------- null}
h -t 0.037312 -s 0 -d 3 -p tcp -e 1040 -c 0 -i 27 -a 0 -x {0.0 1.0 -1 ------- null}
+ -t 0.037312 -s 0 -d 3 -p tcp -e 1040 -c 0 -i 28 -a 0 -x {0.0 1.0 16 ------- null}
r -t 0.037408 -s 3 -d 1 -p tcp -e 1040 -c 0 -i 19 -a 0 -x {0.0 1.0 12 ------- null}
+ -t 0.037408 -s 1 -d 3 -p ack -e 40 -c 0 -i 29 -a 0 -x {1.0 0.0 12 ------- null}
- -t 0.037408 -s 1 -d 3 -p ack -e 40 -c 0 -i 29 -a 0 -x {1.0 0.0 12 ------- null}
h -t 0.037408 -s 1 -d 3 -p ack -e 40 -c 0 -i 29 -a 0 -x {1.0 0.0 -1 ------- null}
r -t 0.037776 -s 1 -d 3 -p ack -e 40 -c 0 -i 25 -a 0 -x {1.0 0.0 10 ------- null}
+ -t 0.037776 -s 3 -d 0 -p ack -e 40 -c 0 -i 25 -a 0 -x {1.0 0.0 10 ------- null}
- -t 0.037776 -s 3 -d 0 -p ack -e 40 -c 0 -i 25 -a 0 -x {1.0 0.0 10 ------- null}
h -t 0.037776 -s 3 -d 0 -p ack -e 40 -c 0 -i 25 -a 0 -x {1.0 0.0 -1 ------- null}
r -t 0.038144 -s 3 -d 0 -p ack -e 40 -c 0 -i 23 -a 0 -x {1.0 0.0 8 ------- null}
+ -t 0.038144 -s 0 -d 3 -p tcp -e 1040 -c 0 -i 30 -a 0 -x {0.0 1.0 17 ------- null}
+ -t 0.038144 -s 0 -d 3 -p tcp -e 1040 -c 0 -i 31 -a 0 -x {0.0 1.0 18 ------- null}
- -t 0.038144 -s 0 -d 3 -p tcp -e 1040 -c 0 -i 28 -a 0 -x {0.0 1.0 16 ------- null}
h -t 0.038144 -s 0 -d 3 -p tcp -e 1040 -c 0 -i 28 -a 0 -x {0.0 1.0 -1 ------- null}
r -t 0.03824 -s 3 -d 1 -p tcp -e 1040 -c 0 -i 20 -a 0 -x {0.0 1.0 13 ------- null}
+ -t 0.03824 -s 1 -d 3 -p ack -e 40 -c 0 -i 32 -a 0 -x {1.0 0.0 13 ------- null}
- -t 0.03824 -s 1 -d 3 -p ack -e 40 -c 0 -i 32 -a 0 -x {1.0 0.0 13 ------- null}
h -t 0.03824 -s 1 -d 3 -p ack -e 40 -c 0 -i 32 -a 0 -x {1.0 0.0 -1 ------- null}
r -t 0.038608 -s 1 -d 3 -p ack -e 40 -c 0 -i 26 -a 0 -x {1.0 0.0 11 ------- null}
+ -t 0.038608 -s 3 -d 0 -p ack -e 40 -c 0 -i 26 -a 0 -x {1.0 0.0 11 ------- null}
- -t 0.038608 -s 3 -d 0 -p ack -e 40 -c 0 -i 26 -a 0 -x {1.0 0.0 11 ------- null}
h -t 0.038608 -s 3 -d 0 -p ack -e 40 -c 0 -i 26 -a 0 -x {1.0 0.0 -1 ------- null}
r -t 0.038976 -s 3 -d 0 -p ack -e 40 -c 0 -i 24 -a 0 -x {1.0 0.0 9 ------- null}
+ -t 0.038976 -s 0 -d 3 -p tcp -e 1040 -c 0 -i 33 -a 0 -x {0.0 1.0 19 ------- null}
+ -t 0.038976 -s 0 -d 3 -p tcp -e 1040 -c 0 -i 34 -a 0 -x {0.0 1.0 20 ------- null}
- -t 0.038976 -s 0 -d 3 -p tcp -e 1040 -c 0 -i 30 -a 0 -x {0.0 1.0 17 ------- null}
h -t 0.038976 -s 0 -d 3 -p tcp -e 1040 -c 0 -i 30 -a 0 -x {0.0 1.0 -1 ------- null}
r -t 0.039072 -s 3 -d 1 -p tcp -e 1040 -c 0 -i 21 -a 0 -x {0.0 1.0 14 ------- null}
+ -t 0.039072 -s 1 -d 3 -p ack -e 40 -c 0 -i 35 -a 0 -x {1.0 0.0 14 ------- null}
- -t 0.039072 -s 1 -d 3 -p ack -e 40 -c 0 -i 35 -a 0 -x {1.0 0.0 14 ------- null}
h -t 0.039072 -s 1 -d 3 -p ack -e 40 -c 0 -i 35 -a 0 -x {1.0 0.0 -1 ------- null}
r -t 0.03944 -s 1 -d 3 -p ack -e 40 -c 0 -i 29 -a 0 -x {1.0 0.0 12 ------- null}
+ -t 0.03944 -s 3 -d 0 -p ack -e 40 -c 0 -i 29 -a 0 -x {1.0 0.0 12 ------- null}
- -t 0.03944 -s 3 -d 0 -p ack -e 40 -c 0 -i 29 -a 0 -x {1.0 0.0 12 ------- null}
h -t 0.03944 -s 3 -d 0 -p ack -e 40 -c 0 -i 29 -a 0 -x {1.0 0.0 -1 ------- null}
r -t 0.039808 -s 3 -d 0 -p ack -e 40 -c 0 -i 25 -a 0 -x {1.0 0.0 10 ------- null}
+ -t 0.039808 -s 0 -d 3 -p tcp -e 1040 -c 0 -i 36 -a 0 -x {0.0 1.0 21 ------- null}
+ -t 0.039808 -s 0 -d 3 -p tcp -e 1040 -c 0 -i 37 -a 0 -x {0.0 1.0 22 ------- null}
- -t 0.039808 -s 0 -d 3 -p tcp -e 1040 -c 0 -i 31 -a 0 -x {0.0 1.0 18 ------- null}
h -t 0.039808 -s 0 -d 3 -p tcp -e 1040 -c 0 -i 31 -a 0 -x {0.0 1.0 -1 ------- null}
r -t 0.040144 -s 0 -d 3 -p tcp -e 1040 -c 0 -i 27 -a 0 -x {0.0 1.0 15 ------- null}
+ -t 0.040144 -s 3 -d 1 -p tcp -e 1040 -c 0 -i 27 -a 0 -x {0.0 1.0 15 ------- null}
- -t 0.040144 -s 3 -d 1 -p tcp -e 1040 -c 0 -i 27 -a 0 -x {0.0 1.0 15 ------- null}
h -t 0.040144 -s 3 -d 1 -p tcp -e 1040 -c 0 -i 27 -a 0 -x {0.0 1.0 -1 ------- null}
r -t 0.040272 -s 1 -d 3 -p ack -e 40 -c 0 -i 32 -a 0 -x {1.0 0.0 13 ------- null}
+ -t 0.040272 -s 3 -d 0 -p ack -e 40 -c 0 -i 32 -a 0 -x {1.0 0.0 13 ------- null}
- -t 0.040272 -s 3 -d 0 -p ack -e 40 -c 0 -i 32 -a 0 -x {1.0 0.0 13 ------- null}
h -t 0.040272 -s 3 -d 0 -p ack -e 40 -c 0 -i 32 -a 0 -x {1.0 0.0 -1 ------- null}
r -t 0.04064 -s 3 -d 0 -p ack -e 40 -c 0 -i 26 -a 0 -x {1.0 0.0 11 ------- null}
+ -t 0.04064 -s 0 -d 3 -p tcp -e 1040 -c 0 -i 38 -a 0 -x {0.0 1.0 23 ------- null}
+ -t 0.04064 -s 0 -d 3 -p tcp -e 1040 -c 0 -i 39 -a 0 -x {0.0 1.0 24 ------- null}
- -t 0.04064 -s 0 -d 3 -p tcp -e 1040 -c 0 -i 33 -a 0 -x {0.0 1.0 19 ------- null}
h -t 0.04064 -s 0 -d 3 -p tcp -e 1040 -c 0 -i 33 -a 0 -x {0.0 1.0 -1 ------- null}
r -t 0.040976 -s 0 -d 3 -p tcp -e 1040 -c 0 -i 28 -a 0 -x {0.0 1.0 16 ------- null}
+ -t 0.040976 -s 3 -d 1 -p tcp -e 1040 -c 0 -i 28 -a 0 -x {0.0 1.0 16 ------- null}
- -t 0.040976 -s 3 -d 1 -p tcp -e 1040 -c 0 -i 28 -a 0 -x {0.0 1.0 16 ------- null}
h -t 0.040976 -s 3 -d 1 -p tcp -e 1040 -c 0 -i 28 -a 0 -x {0.0 1.0 -1 ------- null}
r -t 0.041104 -s 1 -d 3 -p ack -e 40 -c 0 -i 35 -a 0 -x {1.0 0.0 14 ------- null}
+ -t 0.041104 -s 3 -d 0 -p ack -e 40 -c 0 -i 35 -a 0 -x {1.0 0.0 14 ------- null}
- -t 0.041104 -s 3 -d 0 -p ack -e 40 -c 0 -i 35 -a 0 -x {1.0 0.0 14 ------- null}
h -t 0.041104 -s 3 -d 0 -p ack -e 40 -c 0 -i 35 -a 0 -x {1.0 0.0 -1 ------- null}
r -t 0.041472 -s 3 -d 0 -p ack -e 40 -c 0 -i 29 -a 0 -x {1.0 0.0 12 ------- null}
+ -t 0.041472 -s 0 -d 3 -p tcp -e 1040 -c 0 -i 40 -a 0 -x {0.0 1.0 25 ------- null}
+ -t 0.041472 -s 0 -d 3 -p tcp -e 1040 -c 0 -i 41 -a 0 -x {0.0 1.0 26 ------- null}
- -t 0.041472 -s 0 -d 3 -p tcp -e 1040 -c 0 -i 34 -a 0 -x {0.0 1.0 20 ------- null}
h -t 0.041472 -s 0 -d 3 -p tcp -e 1040 -c 0 -i 34 -a 0 -x {0.0 1.0 -1 ------- null}
r -t 0.041808 -s 0 -d 3 -p tcp -e 1040 -c 0 -i 30 -a 0 -x {0.0 1.0 17 ------- null}
+ -t 0.041808 -s 3 -d 1 -p tcp -e 1040 -c 0 -i 30 -a 0 -x {0.0 1.0 17 ------- null}
- -t 0.041808 -s 3 -d 1 -p tcp -e 1040 -c 0 -i 30 -a 0 -x {0.0 1.0 17 ------- null}
h -t 0.041808 -s 3 -d 1 -p tcp -e 1040 -c 0 -i 30 -a 0 -x {0.0 1.0 -1 ------- null}
r -t 0.042304 -s 3 -d 0 -p ack -e 40 -c 0 -i 32 -a 0 -x {1.0 0.0 13 ------- null}
+ -t 0.042304 -s 0 -d 3 -p tcp -e 1040 -c 0 -i 42 -a 0 -x {0.0 1.0 27 ------- null}
+ -t 0.042304 -s 0 -d 3 -p tcp -e 1040 -c 0 -i 43 -a 0 -x {0.0 1.0 28 ------- null}
- -t 0.042304 -s 0 -d 3 -p tcp -e 1040 -c 0 -i 36 -a 0 -x {0.0 1.0 21 ------- null}
h -t 0.042304 -s 0 -d 3 -p tcp -e 1040 -c 0 -i 36 -a 0 -x {0.0 1.0 -1 ------- null}
r -t 0.04264 -s 0 -d 3 -p tcp -e 1040 -c 0 -i 31 -a 0 -x {0.0 1.0 18 ------- null}
+ -t 0.04264 -s 3 -d 1 -p tcp -e 1040 -c 0 -i 31 -a 0 -x {0.0 1.0 18 ------- null}
- -t 0.04264 -s 3 -d 1 -p tcp -e 1040 -c 0 -i 31 -a 0 -x {0.0 1.0 18 ------- null}
h -t 0.04264 -s 3 -d 1 -p tcp -e 1040 -c 0 -i 31 -a 0 -x {0.0 1.0 -1 ------- null}
r -t 0.042976 -s 3 -d 1 -p tcp -e 1040 -c 0 -i 27 -a 0 -x {0.0 1.0 15 ------- null}
+ -t 0.042976 -s 1 -d 3 -p ack -e 40 -c 0 -i 44 -a 0 -x {1.0 0.0 15 ------- null}
- -t 0.042976 -s 1 -d 3 -p ack -e 40 -c 0 -i 44 -a 0 -x {1.0 0.0 15 ------- null}
h -t 0.042976 -s 1 -d 3 -p ack -e 40 -c 0 -i 44 -a 0 -x {1.0 0.0 -1 ------- null}
r -t 0.043136 -s 3 -d 0 -p ack -e 40 -c 0 -i 35 -a 0 -x {1.0 0.0 14 ------- null}
+ -t 0.043136 -s 0 -d 3 -p tcp -e 1040 -c 0 -i 45 -a 0 -x {0.0 1.0 29 ------- null}
+ -t 0.043136 -s 0 -d 3 -p tcp -e 1040 -c 0 -i 46 -a 0 -x {0.0 1.0 30 ------- null}
- -t 0.043136 -s 0 -d 3 -p tcp -e 1040 -c 0 -i 37 -a 0 -x {0.0 1.0 22 ------- null}
h -t 0.043136 -s 0 -d 3 -p tcp -e 1040 -c 0 -i 37 -a 0 -x {0.0 1.0 -1 ------- null}
r -t 0.043472 -s 0 -d 3 -p tcp -e 1040 -c 0 -i 33 -a 0 -x {0.0 1.0 19 ------- null}
+ -t 0.043472 -s 3 -d 1 -p tcp -e 1040 -c 0 -i 33 -a 0 -x {0.0 1.0 19 ------- null}
- -t 0.043472 -s 3 -d 1 -p tcp -e 1040 -c 0 -i 33 -a 0 -x {0.0 1.0 19 ------- null}
h -t 0.043472 -s 3 -d 1 -p tcp -e 1040 -c 0 -i 33 -a 0 -x {0.0 1.0 -1 ------- null}
r -t 0.043808 -s 3 -d 1 -p tcp -e 1040 -c 0 -i 28 -a 0 -x {0.0 1.0 16 ------- null}
+ -t 0.043808 -s 1 -d 3 -p ack -e 40 -c 0 -i 47 -a 0 -x {1.0 0.0 16 ------- null}
- -t 0.043808 -s 1 -d 3 -p ack -e 40 -c 0 -i 47 -a 0 -x {1.0 0.0 16 ------- null}
h -t 0.043808 -s 1 -d 3 -p ack -e 40 -c 0 -i 47 -a 0 -x {1.0 0.0 -1 ------- null}
- -t 0.043968 -s 0 -d 3 -p tcp -e 1040 -c 0 -i 38 -a 0 -x {0.0 1.0 23 ------- null}
h -t 0.043968 -s 0 -d 3 -p tcp -e 1040 -c 0 -i 38 -a 0 -x {0.0 1.0 -1 ------- null}
r -t 0.044304 -s 0 -d 3 -p tcp -e 1040 -c 0 -i 34 -a 0 -x {0.0 1.0 20 ------- null}
+ -t 0.044304 -s 3 -d 1 -p tcp -e 1040 -c 0 -i 34 -a 0 -x {0.0 1.0 20 ------- null}
- -t 0.044304 -s 3 -d 1 -p tcp -e 1040 -c 0 -i 34 -a 0 -x {0.0 1.0 20 ------- null}
h -t 0.044304 -s 3 -d 1 -p tcp -e 1040 -c 0 -i 34 -a 0 -x {0.0 1.0 -1 ------- null}
r -t 0.04464 -s 3 -d 1 -p tcp -e 1040 -c 0 -i 30 -a 0 -x {0.0 1.0 17 ------- null}
+ -t 0.04464 -s 1 -d 3 -p ack -e 40 -c 0 -i 48 -a 0 -x {1.0 0.0 17 ------- null}
- -t 0.04464 -s 1 -d 3 -p ack -e 40 -c 0 -i 48 -a 0 -x {1.0 0.0 17 ------- null}
h -t 0.04464 -s 1 -d 3 -p ack -e 40 -c 0 -i 48 -a 0 -x {1.0 0.0 -1 ------- null}
- -t 0.0448 -s 0 -d 3 -p tcp -e 1040 -c 0 -i 39 -a 0 -x {0.0 1.0 24 ------- null}
h -t 0.0448 -s 0 -d 3 -p tcp -e 1040 -c 0 -i 39 -a 0 -x {0.0 1.0 -1 ------- null}
r -t 0.045008 -s 1 -d 3 -p ack -e 40 -c 0 -i 44 -a 0 -x {1.0 0.0 15 ------- null}
+ -t 0.045008 -s 3 -d 0 -p ack -e 40 -c 0 -i 44 -a 0 -x {1.0 0.0 15 ------- null}
- -t 0.045008 -s 3 -d 0 -p ack -e 40 -c 0 -i 44 -a 0 -x {1.0 0.0 15 ------- null}
h -t 0.045008 -s 3 -d 0 -p ack -e 40 -c 0 -i 44 -a 0 -x {1.0 0.0 -1 ------- null}
r -t 0.045136 -s 0 -d 3 -p tcp -e 1040 -c 0 -i 36 -a 0 -x {0.0 1.0 21 ------- null}
+ -t 0.045136 -s 3 -d 1 -p tcp -e 1040 -c 0 -i 36 -a 0 -x {0.0 1.0 21 ------- null}
- -t 0.045136 -s 3 -d 1 -p tcp -e 1040 -c 0 -i 36 -a 0 -x {0.0 1.0 21 ------- null}
h -t 0.045136 -s 3 -d 1 -p tcp -e 1040 -c 0 -i 36 -a 0 -x {0.0 1.0 -1 ------- null}
r -t 0.045472 -s 3 -d 1 -p tcp -e 1040 -c 0 -i 31 -a 0 -x {0.0 1.0 18 ------- null}
+ -t 0.045472 -s 1 -d 3 -p ack -e 40 -c 0 -i 49 -a 0 -x {1.0 0.0 18 ------- null}
- -t 0.045472 -s 1 -d 3 -p ack -e 40 -c 0 -i 49 -a 0 -x {1.0 0.0 18 ------- null}
h -t 0.045472 -s 1 -d 3 -p ack -e 40 -c 0 -i 49 -a 0 -x {1.0 0.0 -1 ------- null}
- -t 0.045632 -s 0 -d 3 -p tcp -e 1040 -c 0 -i 40 -a 0 -x {0.0 1.0 25 ------- null}
h -t 0.045632 -s 0 -d 3 -p tcp -e 1040 -c 0 -i 40 -a 0 -x {0.0 1.0 -1 ------- null}
r -t 0.04584 -s 1 -d 3 -p ack -e 40 -c 0 -i 47 -a 0 -x {1.0 0.0 16 ------- null}
+ -t 0.04584 -s 3 -d 0 -p ack -e 40 -c 0 -i 47 -a 0 -x {1.0 0.0 16 ------- null}
- -t 0.04584 -s 3 -d 0 -p ack -e 40 -c 0 -i 47 -a 0 -x {1.0 0.0 16 ------- null}
h -t 0.04584 -s 3 -d 0 -p ack -e 40 -c 0 -i 47 -a 0 -x {1.0 0.0 -1 ------- null}
r -t 0.045968 -s 0 -d 3 -p tcp -e 1040 -c 0 -i 37 -a 0 -x {0.0 1.0 22 ------- null}
+ -t 0.045968 -s 3 -d 1 -p tcp -e 1040 -c 0 -i 37 -a 0 -x {0.0 1.0 22 ------- null}
- -t 0.045968 -s 3 -d 1 -p tcp -e 1040 -c 0 -i 37 -a 0 -x {0.0 1.0 22 ------- null}
h -t 0.045968 -s 3 -d 1 -p tcp -e 1040 -c 0 -i 37 -a 0 -x {0.0 1.0 -1 ------- null}
r -t 0.046304 -s 3 -d 1 -p tcp -e 1040 -c 0 -i 33 -a 0 -x {0.0 1.0 19 ------- null}
+ -t 0.046304 -s 1 -d 3 -p ack -e 40 -c 0 -i 50 -a 0 -x {1.0 0.0 19 ------- null}
- -t 0.046304 -s 1 -d 3 -p ack -e 40 -c 0 -i 50 -a 0 -x {1.0 0.0 19 ------- null}
h -t 0.046304 -s 1 -d 3 -p ack -e 40 -c 0 -i 50 -a 0 -x {1.0 0.0 -1 ------- null}
- -t 0.046464 -s 0 -d 3 -p tcp -e 1040 -c 0 -i 41 -a 0 -x {0.0 1.0 26 ------- null}
h -t 0.046464 -s 0 -d 3 -p tcp -e 1040 -c 0 -i 41 -a 0 -x {0.0 1.0 -1 ------- null}
r -t 0.046672 -s 1 -d 3 -p ack -e 40 -c 0 -i 48 -a 0 -x {1.0 0.0 17 ------- null}
+ -t 0.046672 -s 3 -d 0 -p ack -e 40 -c 0 -i 48 -a 0 -x {1.0 0.0 17 ------- null}
- -t 0.046672 -s 3 -d 0 -p ack -e 40 -c 0 -i 48 -a 0 -x {1.0 0.0 17 ------- null}
h -t 0.046672 -s 3 -d 0 -p ack -e 40 -c 0 -i 48 -a 0 -x {1.0 0.0 -1 ------- null}
r -t 0.0468 -s 0 -d 3 -p tcp -e 1040 -c 0 -i 38 -a 0 -x {0.0 1.0 23 ------- null}
+ -t 0.0468 -s 3 -d 1 -p tcp -e 1040 -c 0 -i 38 -a 0 -x {0.0 1.0 23 ------- null}
- -t 0.0468 -s 3 -d 1 -p tcp -e 1040 -c 0 -i 38 -a 0 -x {0.0 1.0 23 ------- null}
h -t 0.0468 -s 3 -d 1 -p tcp -e 1040 -c 0 -i 38 -a 0 -x {0.0 1.0 -1 ------- null}
r -t 0.04704 -s 3 -d 0 -p ack -e 40 -c 0 -i 44 -a 0 -x {1.0 0.0 15 ------- null}
+ -t 0.04704 -s 0 -d 3 -p tcp -e 1040 -c 0 -i 51 -a 0 -x {0.0 1.0 31 ------- null}
+ -t 0.04704 -s 0 -d 3 -p tcp -e 1040 -c 0 -i 52 -a 0 -x {0.0 1.0 32 ------- null}
r -t 0.047136 -s 3 -d 1 -p tcp -e 1040 -c 0 -i 34 -a 0 -x {0.0 1.0 20 ------- null}
+ -t 0.047136 -s 1 -d 3 -p ack -e 40 -c 0 -i 53 -a 0 -x {1.0 0.0 20 ------- null}
- -t 0.047136 -s 1 -d 3 -p ack -e 40 -c 0 -i 53 -a 0 -x {1.0 0.0 20 ------- null}
h -t 0.047136 -s 1 -d 3 -p ack -e 40 -c 0 -i 53 -a 0 -x {1.0 0.0 -1 ------- null}
- -t 0.047296 -s 0 -d 3 -p tcp -e 1040 -c 0 -i 42 -a 0 -x {0.0 1.0 27 ------- null}