+ 0 0 3 tcp 40 ------- 0 0.0 1.0 0 0
- 0 0 3 tcp 40 ------- 0 0.0 1.0 0 0
r 0.002032 0 3 tcp 40 ------- 0 0.0 1.0 0 0
+ 0.002032 3 1 tcp 40 ------- 0 0.0 1.0 0 0
- 0.002032 3 1 tcp 40 ------- 0 0.0 1.0 0 0
r 0.004064 3 1 tcp 40 ------- 0 0.0 1.0 0 0
+ 0.004064 1 3 ack 40 ------- 0 1.0 0.0 0 1
- 0.004064 1 3 ack 40 ------- 0 1.0 0.0 0 1
r 0.006096 1 3 ack 40 ------- 0 1.0 0.0 0 1
+ 0.006096 3 0 ack 40 ------- 0 1.0 0.0 0 1
- 0.006096 3 0 ack 40 ------- 0 1.0 0.0 0 1
r 0.008128 3 0 ack 40 ------- 0 1.0 0.0 0 1
+ 0.008128 0 3 tcp 1040 ------- 0 0.0 1.0 1 2
- 0.008128 0 3 tcp 1040 ------- 0 0.0 1.0 1 2
+ 0.008128 0 3 tcp 1040 ------- 0 0.0 1.0 2 3
- 0.00896 0 3 tcp 1040 ------- 0 0.0 1.0 2 3
r 0.01096 0 3 tcp 1040 ------- 0 0.0 1.0 1 2
+ 0.01096 3 1 tcp 1040 ------- 0 0.0 1.0 1 2
- 0.01096 3 1 tcp 1040 ------- 0 0.0 1.0 1 2
r 0.011792 0 3 tcp 1040 ------- 0 0.0 1.0 2 3
+ 0.011792 3 1 tcp 1040 ------- 0 0.0 1.0 2 3
- 0.011792 3 1 tcp 1040 ------- 0 0.0 1.0 2 3
r 0.013792 3 1 tcp 1040 ------- 0 0.0 1.0 1 2
+ 0.013792 1 3 ack 40 ------- 0 1.0 0.0 1 4
- 0.013792 1 3 ack 40 ------- 0 1.0 0.0 1 4
r 0.014624 3 1 tcp 1040 ------- 0 0.0 1.0 2 3
+ 0.014624 1 3 ack 40 ------- 0 1.0 0.0 2 5
- 0.014624 1 3 ack 40 ------- 0 1.0 0.0 2 5
r 0.015824 1 3 ack 40 ------- 0 1.0 0.0 1 4
+ 0.015824 3 0 ack 40 ------- 0 1.0 0.0 1 4
- 0.015824 3 0 ack 40 ------- 0 1.0 0.0 1 4
r 0.016656 1 3 ack 40 ------- 0 1.0 0.0 2 5
+ 0.016656 3 0 ack 40 ------- 0 1.0 0.0 2 5
- 0.016656 3 0 ack 40 ------- 0 1.0 0.0 2 5
r 0.017856 3 0 ack 40 ------- 0 1.0 0.0 1 4
+ 0.017856 0 3 tcp 1040 ------- 0 0.0 1.0 3 6
- 0.017856 0 3 tcp 1040 ------- 0 0.0 1.0 3 6
+ 0.017856 0 3 tcp 1040 ------- 0 0.0 1.0 4 7
r 0.018688 3 0 ack 40 ------- 0 1.0 0.0 2 5
+ 0.018688 0 3 tcp 1040 ------- 0 0.0 1.0 5 8
+ 0.018688 0 3 tcp 1040 ------- 0 0.0 1.0 6 9
- 0.018688 0 3 tcp 1040 ------- 0 0.0 1.0 4 7
- 0.01952 0 3 tcp 1040 ------- 0 0.0 1.0 5 8
- 0.020352 0 3 tcp 1040 ------- 0 0.0 1.0 6 9
r 0.020688 0 3 tcp 1040 ------- 0 0.0 1.0 3 6
+ 0.020688 3 1 tcp 1040 ------- 0 0.0 1.0 3 6
- 0.020688 3 1 tcp 1040 ------- 0 0.0 1.0 3 6
r 0.02152 0 3 tcp 1040 ------- 0 0.0 1.0 4 7
+ 0.02152 3 1 tcp 1040 ------- 0 0.0 1.0 4 7
- 0.02152 3 1 tcp 1040 ------- 0 0.0 1.0 4 7
r 0.022352 0 3 tcp 1040 ------- 0 0.0 1.0 5 8
+ 0.022352 3 1 tcp 1040 ------- 0 0.0 1.0 5 8
- 0.022352 3 1 tcp 1040 ------- 0 0.0 1.0 5 8
r 0.023184 0 3 tcp 1040 ------- 0 0.0 1.0 6 9
+ 0.023184 3 1 tcp 1040 ------- 0 0.0 1.0 6 9
- 0.023184 3 1 tcp 1040 ------- 0 0.0 1.0 6 9
r 0.02352 3 1 tcp 1040 ------- 0 0.0 1.0 3 6
+ 0.02352 1 3 ack 40 ------- 0 1.0 0.0 3 10
- 0.02352 1 3 ack 40 ------- 0 1.0 0.0 3 10
r 0.024352 3 1 tcp 1040 ------- 0 0.0 1.0 4 7
+ 0.024352 1 3 ack 40 ------- 0 1.0 0.0 4 11
- 0.024352 1 3 ack 40 ------- 0 1.0 0.0 4 11
r 0.025184 3 1 tcp 1040 ------- 0 0.0 1.0 5 8
+ 0.025184 1 3 ack 40 ------- 0 1.0 0.0 5 12
- 0.025184 1 3 ack 40 ------- 0 1.0 0.0 5 12
r 0.025552 1 3 ack 40 ------- 0 1.0 0.0 3 10
+ 0.025552 3 0 ack 40 ------- 0 1.0 0.0 3 10
- 0.025552 3 0 ack 40 ------- 0 1.0 0.0 3 10
r 0.026016 3 1 tcp 1040 ------- 0 0.0 1.0 6 9
+ 0.026016 1 3 ack 40 ------- 0 1.0 0.0 6 13
- 0.026016 1 3 ack 40 ------- 0 1.0 0.0 6 13
r 0.026384 1 3 ack 40 ------- 0 1.0 0.0 4 11
+ 0.026384 3 0 ack 40 ------- 0 1.0 0.0 4 11
- 0.026384 3 0 ack 40 ------- 0 1.0 0.0 4 11
r 0.027216 1 3 ack 40 ------- 0 1.0 0.0 5 12
+ 0.027216 3 0 ack 40 ------- 0 1.0 0.0 5 12
- 0.027216 3 0 ack 40 ------- 0 1.0 0.0 5 12
r 0.027584 3 0 ack 40 ------- 0 1.0 0.0 3 10
+ 0.027584 0 3 tcp 1040 ------- 0 0.0 1.0 7 14
- 0.027584 0 3 tcp 1040 ------- 0 0.0 1.0 7 14
+ 0.027584 0 3 tcp 1040 ------- 0 0.0 1.0 8 15
r 0.028048 1 3 ack 40 ------- 0 1.0 0.0 6 13
+ 0.028048 3 0 ack 40 ------- 0 1.0 0.0 6 13
- 0.028048 3 0 ack 40 ------- 0 1.0 0.0 6 13
r 0.028416 3 0 ack 40 ------- 0 1.0 0.0 4 11
+ 0.028416 0 3 tcp 1040 ------- 0 0.0 1.0 9 16
+ 0.028416 0 3 tcp 1040 ------- 0 0.0 1.0 10 17
- 0.028416 0 3 tcp 1040 ------- 0 0.0 1.0 8 15
r 0.029248 3 0 ack 40 ------- 0 1.0 0.0 5 12
+ 0.029248 0 3 tcp 1040 ------- 0 0.0 1.0 11 18
+ 0.029248 0 3 tcp 1040 ------- 0 0.0 1.0 12 19
- 0.029248 0 3 tcp 1040 ------- 0 0.0 1.0 9 16
r 0.03008 3 0 ack 40 ------- 0 1.0 0.0 6 13
+ 0.03008 0 3 tcp 1040 ------- 0 0.0 1.0 13 20
+ 0.03008 0 3 tcp 1040 ------- 0 0.0 1.0 14 21
- 0.03008 0 3 tcp 1040 ------- 0 0.0 1.0 10 17
r 0.030416 0 3 tcp 1040 ------- 0 0.0 1.0 7 14
+ 0.030416 3 1 tcp 1040 ------- 0 0.0 1.0 7 14
- 0.030416 3 1 tcp 1040 ------- 0 0.0 1.0 7 14
- 0.030912 0 3 tcp 1040 ------- 0 0.0 1.0 11 18
r 0.031248 0 3 tcp 1040 ------- 0 0.0 1.0 8 15
+ 0.031248 3 1 tcp 1040 ------- 0 0.0 1.0 8 15
- 0.031248 3 1 tcp 1040 ------- 0 0.0 1.0 8 15
- 0.031744 0 3 tcp 1040 ------- 0 0.0 1.0 12 19
r 0.03208 0 3 tcp 1040 ------- 0 0.0 1.0 9 16
+ 0.03208 3 1 tcp 1040 ------- 0 0.0 1.0 9 16
- 0.03208 3 1 tcp 1040 ------- 0 0.0 1.0 9 16
- 0.032576 0 3 tcp 1040 ------- 0 0.0 1.0 13 20
r 0.032912 0 3 tcp 1040 ------- 0 0.0 1.0 10 17
+ 0.032912 3 1 tcp 1040 ------- 0 0.0 1.0 10 17
- 0.032912 3 1 tcp 1040 ------- 0 0.0 1.0 10 17
r 0.033248 3 1 tcp 1040 ------- 0 0.0 1.0 7 14
+ 0.033248 1 3 ack 40 ------- 0 1.0 0.0 7 22
- 0.033248 1 3 ack 40 ------- 0 1.0 0.0 7 22
- 0.033408 0 3 tcp 1040 ------- 0 0.0 1.0 14 21
r 0.033744 0 3 tcp 1040 ------- 0 0.0 1.0 11 18
+ 0.033744 3 1 tcp 1040 ------- 0 0.0 1.0 11 18
- 0.033744 3 1 tcp 1040 ------- 0 0.0 1.0 11 18
r 0.03408 3 1 tcp 1040 ------- 0 0.0 1.0 8 15
+ 0.03408 1 3 ack 40 ------- 0 1.0 0.0 8 23
- 0.03408 1 3 ack 40 ------- 0 1.0 0.0 8 23
r 0.034576 0 3 tcp 1040 ------- 0 0.0 1.0 12 19
+ 0.034576 3 1 tcp 1040 ------- 0 0.0 1.0 12 19
- 0.034576 3 1 tcp 1040 ------- 0 0.0 1.0 12 19
r 0.034912 3 1 tcp 1040 ------- 0 0.0 1.0 9 16
+ 0.034912 1 3 ack 40 ------- 0 1.0 0.0 9 24
- 0.034912 1 3 ack 40 ------- 0 1.0 0.0 9 24
r 0.03528 1 3 ack 40 ------- 0 1.0 0.0 7 22
+ 0.03528 3 0 ack 40 ------- 0 1.0 0.0 7 22
- 0.03528 3 0 ack 40 ------- 0 1.0 0.0 7 22
r 0.035408 0 3 tcp 1040 ------- 0 0.0 1.0 13 20
+ 0.035408 3 1 tcp 1040 ------- 0 0.0 1.0 13 20
- 0.035408 3 1 tcp 1040 ------- 0 0.0 1.0 13 20
r 0.035744 3 1 tcp 1040 ------- 0 0.0 1.0 10 17
+ 0.035744 1 3 ack 40 ------- 0 1.0 0.0 10 25
- 0.035744 1 3 ack 40 ------- 0 1.0 0.0 10 25
r 0.036112 1 3 ack 40 ------- 0 1.0 0.0 8 23
+ 0.036112 3 0 ack 40 ------- 0 1.0 0.0 8 23
- 0.036112 3 0 ack 40 ------- 0 1.0 0.0 8 23
r 0.03624 0 3 tcp 1040 ------- 0 0.0 1.0 14 21
+ 0.03624 3 1 tcp 1040 ------- 0 0.0 1.0 14 21
- 0.03624 3 1 tcp 1040 ------- 0 0.0 1.0 14 21
r 0.036576 3 1 tcp 1040 ------- 0 0.0 1.0 11 18
+ 0.036576 1 3 ack 40 ------- 0 1.0 0.0 11 26
- 0.036576 1 3 ack 40 ------- 0 1.0 0.0 11 26
r 0.036944 1 3 ack 40 ------- 0 1.0 0.0 9 24
+ 0.036944 3 0 ack 40 ------- 0 1.0 0.0 9 24
- 0.036944 3 0 ack 40 ------- 0 1.0 0.0 9 24
r 0.037312 3 0 ack 40 ------- 0 1.0 0.0 7 22
+ 0.037312 0 3 tcp 1040 ------- 0 0.0 1.0 15 27
- 0.037312 0 3 tcp 1040 ------- 0 0.0 1.0 15 27
+ 0.037312 0 3 tcp 1040 ------- 0 0.0 1.0 16 28
r 0.037408 3 1 tcp 1040 ------- 0 0.0 1.0 12 19
+ 0.037408 1 3 ack 40 ------- 0 1.0 0.0 12 29
- 0.037408 1 3 ack 40 ------- 0 1.0 0.0 12 29
r 0.037776 1 3 ack 40 ------- 0 1.0 0.0 10 25
+ 0.037776 3 0 ack 40 ------- 0 1.0 0.0 10 25
- 0.037776 3 0 ack 40 ------- 0 1.0 0.0 10 25
r 0.038144 3 0 ack 40 ------- 0 1.0 0.0 8 23
+ 0.038144 0 3 tcp 1040 ------- 0 0.0 1.0 17 30
+ 0.038144 0 3 tcp 1040 ------- 0 0.0 1.0 18 31
- 0.038144 0 3 tcp 1040 ------- 0 0.0 1.0 16 28
r 0.03824 3 1 tcp 1040 ------- 0 0.0 1.0 13 20
+ 0.03824 1 3 ack 40 ------- 0 1.0 0.0 13 32
- 0.03824 1 3 ack 40 ------- 0 1.0 0.0 13 32
r 0.038608 1 3 ack 40 ------- 0 1.0 0.0 11 26
+ 0.038608 3 0 ack 40 ------- 0 1.0 0.0 11 26
- 0.038608 3 0 ack 40 ------- 0 1.0 0.0 11 26
r 0.038976 3 0 ack 40 ------- 0 1.0 0.0 9 24
+ 0.038976 0 3 tcp 1040 ------- 0 0.0 1.0 19 33
+ 0.038976 0 3 tcp 1040 ------- 0 0.0 1.0 20 34
- 0.038976 0 3 tcp 1040 ------- 0 0.0 1.0 17 30
r 0.039072 3 1 tcp 1040 ------- 0 0.0 1.0 14 21
+ 0.039072 1 3 ack 40 ------- 0 1.0 0.0 14 35
- 0.039072 1 3 ack 40 ------- 0 1.0 0.0 14 35
r 0.03944 1 3 ack 40 ------- 0 1.0 0.0 12 29
+ 0.03944 3 0 ack 40 ------- 0 1.0 0.0 12 29
- 0.03944 3 0 ack 40 ------- 0 1.0 0.0 12 29
r 0.039808 3 0 ack 40 ------- 0 1.0 0.0 10 25
+ 0.039808 0 3 tcp 1040 ------- 0 0.0 1.0 21 36
+ 0.039808 0 3 tcp 1040 ------- 0 0.0 1.0 22 37
- 0.039808 0 3 tcp 1040 ------- 0 0.0 1.0 18 31
r 0.040144 0 3 tcp 1040 ------- 0 0.0 1.0 15 27
+ 0.040144 3 1 tcp 1040 ------- 0 0.0 1.0 15 27
- 0.040144 3 1 tcp 1040 ------- 0 0.0 1.0 15 27
r 0.040272 1 3 ack 40 ------- 0 1.0 0.0 13 32
+ 0.040272 3 0 ack 40 ------- 0 1.0 0.0 13 32
- 0.040272 3 0 ack 40 ------- 0 1.0 0.0 13 32
r 0.04064 3 0 ack 40 ------- 0 1.0 0.0 11 26
+ 0.04064 0 3 tcp 1040 ------- 0 0.0 1.0 23 38
+ 0.04064 0 3 tcp 1040 ------- 0 0.0 1.0 24 39
- 0.04064 0 3 tcp 1040 ------- 0 0.0 1.0 19 33
r 0.040976 0 3 tcp 1040 ------- 0 0.0 1.0 16 28
+ 0.040976 3 1 tcp 1040 ------- 0 0.0 1.0 16 28
- 0.040976 3 1 tcp 1040 ------- 0 0.0 1.0 16 28
r 0.041104 1 3 ack 40 ------- 0 1.0 0.0 14 35
+ 0.041104 3 0 ack 40 ------- 0 1.0 0.0 14 35
- 0.041104 3 0 ack 40 ------- 0 1.0 0.0 14 35
r 0.041472 3 0 ack 40 ------- 0 1.0 0.0 12 29
+ 0.041472 0 3 tcp 1040 ------- 0 0.0 1.0 25 40
+ 0.041472 0 3 tcp 1040 ------- 0 0.0 1.0 26 41
- 0.041472 0 3 tcp 1040 ------- 0 0.0 1.0 20 34
r 0.041808 0 3 tcp 1040 ------- 0 0.0 1.0 17 30
+ 0.041808 3 1 tcp 1040 ------- 0 0.0 1.0 17 30
- 0.041808 3 1 tcp 1040 ------- 0 0.0 1.0 17 30
r 0.042304 3 0 ack 40 ------- 0 1.0 0.0 13 32
+ 0.042304 0 3 tcp 1040 ------- 0 0.0 1.0 27 42
+ 0.042304 0 3 tcp 1040 ------- 0 0.0 1.0 28 43
- 0.042304 0 3 tcp 1040 ------- 0 0.0 1.0 21 36
r 0.04264 0 3 tcp 1040 ------- 0 0.0 1.0 18 31
+ 0.04264 3 1 tcp 1040 ------- 0 0.0 1.0 18 31
- 0.04264 3 1 tcp 1040 ------- 0 0.0 1.0 18 31
r 0.042976 3 1 tcp 1040 ------- 0 0.0 1.0 15 27
+ 0.042976 1 3 ack 40 ------- 0 1.0 0.0 15 44
- 0.042976 1 3 ack 40 ------- 0 1.0 0.0 15 44
r 0.043136 3 0 ack 40 ------- 0 1.0 0.0 14 35
+ 0.043136 0 3 tcp 1040 ------- 0 0.0 1.0 29 45
+ 0.043136 0 3 tcp 1040 ------- 0 0.0 1.0 30 46
- 0.043136 0 3 tcp 1040 ------- 0 0.0 1.0 22 37
r 0.043472 0 3 tcp 1040 ------- 0 0.0 1.0 19 33
+ 0.043472 3 1 tcp 1040 ------- 0 0.0 1.0 19 33
- 0.043472 3 1 tcp 1040 ------- 0 0.0 1.0 19 33
r 0.043808 3 1 tcp 1040 ------- 0 0.0 1.0 16 28
+ 0.043808 1 3 ack 40 ------- 0 1.0 0.0 16 47
- 0.043808 1 3 ack 40 ------- 0 1.0 0.0 16 47
- 0.043968 0 3 tcp 1040 ------- 0 0.0 1.0 23 38
r 0.044304 0 3 tcp 1040 ------- 0 0.0 1.0 20 34
+ 0.044304 3 1 tcp 1040 ------- 0 0.0 1.0 20 34
- 0.044304 3 1 tcp 1040 ------- 0 0.0 1.0 20 34
r 0.04464 3 1 tcp 1040 ------- 0 0.0 1.0 17 30
+ 0.04464 1 3 ack 40 ------- 0 1.0 0.0 17 48
- 0.04464 1 3 ack 40 ------- 0 1.0 0.0 17 48
- 0.0448 0 3 tcp 1040 ------- 0 0.0 1.0 24 39
r 0.045008 1 3 ack 40 ------- 0 1.0 0.0 15 44
+ 0.045008 3 0 ack 40 ------- 0 1.0 0.0 15 44
- 0.045008 3 0 ack 40 ------- 0 1.0 0.0 15 44
r 0.045136 0 3 tcp 1040 ------- 0 0.0 1.0 21 36
+ 0.045136 3 1 tcp 1040 ------- 0 0.0 1.0 21 36
- 0.045136 3 1 tcp 1040 ------- 0 0.0 1.0 21 36
r 0.045472 3 1 tcp 1040 ------- 0 0.0 1.0 18 31
+ 0.045472 1 3 ack 40 ------- 0 1.0 0.0 18 49
- 0.045472 1 3 ack 40 ------- 0 1.0 0.0 18 49
- 0.045632 0 3 tcp 1040 ------- 0 0.0 1.0 25 40
r 0.04584 1 3 ack 40 ------- 0 1.0 0.0 16 47
+ 0.04584 3 0 ack 40 ------- 0 1.0 0.0 16 47
- 0.04584 3 0 ack 40 ------- 0 1.0 0.0 16 47
r 0.045968 0 3 tcp 1040 ------- 0 0.0 1.0 22 37
+ 0.045968 3 1 tcp 1040 ------- 0 0.0 1.0 22 37
- 0.045968 3 1 tcp 1040 ------- 0 0.0 1.0 22 37
r 0.046304 3 1 tcp 1040 ------- 0 0.0 1.0 19 33
+ 0.046304 1 3 ack 40 ------- 0 1.0 0.0 19 50
- 0.046304 1 3 ack 40 ------- 0 1.0 0.0 19 50
- 0.046464 0 3 tcp 1040 ------- 0 0.0 1.0 26 41
r 0.046672 1 3 ack 40 ------- 0 1.0 0.0 17 48
+ 0.046672 3 0 ack 40 ------- 0 1.0 0.0 17 48
- 0.046672 3 0 ack 40 ------- 0 1.0 0.0 17 48
r 0.0468 0 3 tcp 1040 ------- 0 0.0 1.0 23 38
+ 0.0468 3 1 tcp 1040 ------- 0 0.0 1.0 23 38
- 0.0468 3 1 tcp 1040 ------- 0 0.0 1.0 23 38
r 0.04704 3 0 ack 40 ------- 0 1.0 0.0 15 44
+ 0.04704 0 3 tcp 1040 ------- 0 0.0 1.0 31 51
+ 0.04704 0 3 tcp 1040 ------- 0 0.0 1.0 32 52
r 0.047136 3 1 tcp 1040 ------- 0 0.0 1.0 20 34
+ 0.047136 1 3 ack 40 ------- 0 1.0 0.0 20 53
- 0.047136 1 3 ack 40 ------- 0 1.0 0.0 20 53
- 0.047296 0 3 tcp 1040 ------- 0 0.0 1.0 27 42
r 0.047504 1 3 ack 40 ------- 0 1.0 0.0 18 49
+ 0.047504 3 0 ack 40 ------- 0 1.0 0.0 18 49
- 0.047504 3 0 ack 40 ------- 0 1.0 0.0 18 49
r 0.047632 0 3 tcp 1040 ------- 0 0.0 1.0 24 39
+ 0.047632 3 1 tcp 1040 ------- 0 0.0 1.0 24 39
- 0.047632 3 1 tcp 1040 ------- 0 0.0 1.0 24 39
r 0.047872 3 0 ack 40 ------- 0 1.0 0.0 16 47
+ 0.047872 0 3 tcp 1040 ------- 0 0.0 1.0 33 54
+ 0.047872 0 3 tcp 1040 ------- 0 0.0 1.0 34 55
r 0.047968 3 1 tcp 1040 ------- 0 0.0 1.0 21 36
+ 0.047968 1 3 ack 40 ------- 0 1.0 0.0 21 56
- 0.047968 1 3 ack 40 ------- 0 1.0 0.0 21 56
- 0.048128 0 3 tcp 1040 ------- 0 0.0 1.0 28 43
r 0.048336 1 3 ack 40 ------- 0 1.0 0.0 19 50
+ 0.048336 3 0 ack 40 ------- 0 1.0 0.0 19 50
- 0.048336 3 0 ack 40 ------- 0 1.0 0.0 19 50
r 0.048464 0 3 tcp 1040 ------- 0 0.0 1.0 25 40
+ 0.048464 3 1 tcp 1040 ------- 0 0.0 1.0 25 40
- 0.048464 3 1 tcp 1040 ------- 0 0.0 1.0 25 40
r 0.048704 3 0 ack 40 ------- 0 1.0 0.0 17 48
+ 0.048704 0 3 tcp 1040 ------- 0 0.0 1.0 35 57
+ 0.048704 0 3 tcp 1040 ------- 0 0.0 1.0 36 58
r 0.0488 3 1 tcp 1040 ------- 0 0.0 1.0 22 37
+ 0.0488 1 3 ack 40 ------- 0 1.0 0.0 22 59
- 0.0488 1 3 ack 40 ------- 0 1.0 0.0 22 59
- 0.04896 0 3 tcp 1040 ------- 0 0.0 1.0 29 45
r 0.049168 1 3 ack 40 ------- 0 1.0 0.0 20 53
+ 0.049168 3 0 ack 40 ------- 0 1.0 0.0 20 53
- 0.049168 3 0 ack 40 ------- 0 1.0 0.0 20 53
r 0.049296 0 3 tcp 1040 ------- 0 0.0 1.0 26 41
+ 0.049296 3 1 tcp 1040 ------- 0 0.0 1.0 26 41
- 0.049296 3 1 tcp 1040 ------- 0 0.0 1.0 26 41
r 0.049536 3 0 ack 40 ------- 0 1.0 0.0 18 49
+ 0.049536 0 3 tcp 1040 ------- 0 0.0 1.0 37 60
+ 0.049536 0 3 tcp 1040 ------- 0 0.0 1.0 38 61
r 0.049632 3 1 tcp 1040 ------- 0 0.0 1.0 23 38
+ 0.049632 1 3 ack 40 ------- 0 1.0 0.0 23 62
- 0.049632 1 3 ack 40 ------- 0 1.0 0.0 23 62
- 0.049792 0 3 tcp 1040 ------- 0 0.0 1.0 30 46
r 0.05 1 3 ack 40 ------- 0 1.0 0.0 21 56
+ 0.05 3 0 ack 40 ------- 0 1.0 0.0 21 56
- 0.05 3 0 ack 40 ------- 0 1.0 0.0 21 56
r 0.050128 0 3 tcp 1040 ------- 0 0.0 1.0 27 42
+ 0.050128 3 1 tcp 1040 ------- 0 0.0 1.0 27 42
- 0.050128 3 1 tcp 1040 ------- 0 0.0 1.0 27 42
r 0.050368 3 0 ack 40 ------- 0 1.0 0.0 19 50
+ 0.050368 0 3 tcp 1040 ------- 0 0.0 1.0 39 63
r 0.050464 3 1 tcp 1040 ------- 0 0.0 1.0 24 39
+ 0.050464 1 3 ack 40 ------- 0 1.0 0.0 24 64
- 0.050464 1 3 ack 40 ------- 0 1.0 0.0 24 64
- 0.050624 0 3 tcp 1040 ------- 0 0.0 1.0 31 51
r 0.050832 1 3 ack 40 ------- 0 1.0 0.0 22 59
+ 0.050832 3 0 ack 40 ------- 0 1.0 0.0 22 59
- 0.050832 3 0 ack 40 ------- 0 1.0 0.0 22 59
r 0.05096 0 3 tcp 1040 ------- 0 0.0 1.0 28 43
+ 0.05096 3 1 tcp 1040 ------- 0 0.0 1.0 28 43
- 0.05096 3 1 tcp 1040 ------- 0 0.0 1.0 28 43
r 0.0512 3 0 ack 40 ------- 0 1.0 0.0 20 53
+ 0.0512 0 3 tcp 1040 ------- 0 0.0 1.0 40 65
r 0.051296 3 1 tcp 1040 ------- 0 0.0 1.0 25 40
+ 0.051296 1 3 ack 40 ------- 0 1.0 0.0 25 66
- 0.051296 1 3 ack 40 ------- 0 1.0 0.0 25 66
- 0.051456 0 3 tcp 1040 ------- 0 0.0 1.0 32 52
r 0.051664 1 3 ack 40 ------- 0 1.0 0.0 23 62
+ 0.051664 3 0 ack 40 ------- 0 1.0 0.0 23 62
- 0.051664 3 0 ack 40 ------- 0 1.0 0.0 23 62
r 0.051792 0 3 tcp 1040 ------- 0 0.0 1.0 29 45
+ 0.051792 3 1 tcp 1040 ------- 0 0.0 1.0 29 45
- 0.051792 3 1 tcp 1040 ------- 0 0.0 1.0 29 45
r 0.052032 3 0 ack 40 ------- 0 1.0 0.0 21 56
+ 0.052032 0 3 tcp 1040 ------- 0 0.0 1.0 41 67
r 0.052128 3 1 tcp 1040 ------- 0 0.0 1.0 26 41
+ 0.052128 1 3 ack 40 ------- 0 1.0 0.0 26 68
- 0.052128 1 3 ack 40 ------- 0 1.0 0.0 26 68
- 0.052288 0 3 tcp 1040 ------- 0 0.0 1.0 33 54
r 0.052496 1 3 ack 40 ------- 0 1.0 0.0 24 64
+ 0.052496 3 0 ack 40 ------- 0 1.0 0.0 24 64
- 0.052496 3 0 ack 40 ------- 0 1.0 0.0 24 64
r 0.052624 0 3 tcp 1040 ------- 0 0.0 1.0 30 46
+ 0.052624 3 1 tcp 1040 ------- 0 0.0 1.0 30 46
- 0.052624 3 1 tcp 1040 ------- 0 0.0 1.0 30 46
r 0.052864 3 0 ack 40 ------- 0 1.0 0.0 22 59
+ 0.052864 0 3 tcp 1040 ------- 0 0.0 1.0 42 69
r 0.05296 3 1 tcp 1040 ------- 0 0.0 1.0 27 42
+ 0.05296 1 3 ack 40 ------- 0 1.0 0.0 27 70
- 0.05296 1 3 ack 40 ------- 0 1.0 0.0 27 70
- 0.05312 0 3 tcp 1040 ------- 0 0.0 1.0 34 55
r 0.053328 1 3 ack 40 ------- 0 1.0 0.0 25 66
+ 0.053328 3 0 ack 40 ------- 0 1.0 0.0 25 66
- 0.053328 3 0 ack 40 ------- 0 1.0 0.0 25 66
r 0.053456 0 3 tcp 1040 ------- 0 0.0 1.0 31 51
+ 0.053456 3 1 tcp 1040 ------- 0 0.0 1.0 31 51
- 0.053456 3 1 tcp 1040 ------- 0 0.0 1.0 31 51
r 0.053696 3 0 ack 40 ------- 0 1.0 0.0 23 62
+ 0.053696 0 3 tcp 1040 ------- 0 0.0 1.0 43 71
r 0.053792 3 1 tcp 1040 ------- 0 0.0 1.0 28 43
+ 0.053792 1 3 ack 40 ------- 0 1.0 0.0 28 72
- 0.053792 1 3 ack 40 ------- 0 1.0 0.0 28 72
- 0.053952 0 3 tcp 1040 ------- 0 0.0 1.0 35 57
r 0.05416 1 3 ack 40 ------- 0 1.0 0.0 26 68
+ 0.05416 3 0 ack 40 ------- 0 1.0 0.0 26 68
- 0.05416 3 0 ack 40 ------- 0 1.0 0.0 26 68
r 0.054288 0 3 tcp 1040 ------- 0 0.0 1.0 32 52
+ 0.054288 3 1 tcp 1040 ------- 0 0.0 1.0 32 52
- 0.054288 3 1 tcp 1040 ------- 0 0.0 1.0 32 52
r 0.054528 3 0 ack 40 ------- 0 1.0 0.0 24 64
+ 0.054528 0 3 tcp 1040 ------- 0 0.0 1.0 44 73
r 0.054624 3 1 tcp 1040 ------- 0 0.0 1.0 29 45
+ 0.054624 1 3 ack 40 ------- 0 1.0 0.0 29 74
- 0.054624 1 3 ack 40 ------- 0 1.0 0.0 29 74
- 0.054784 0 3 tcp 1040 ------- 0 0.0 1.0 36 58
r 0.054992 1 3 ack 40 ------- 0 1.0 0.0 27 70
+ 0.054992 3 0 ack 40 ------- 0 1.0 0.0 27 70
- 0.054992 3 0 ack 40 ------- 0 1.0 0.0 27 70
r 0.05512 0 3 tcp 1040 ------- 0 0.0 1.0 33 54
+ 0.05512 3 1 tcp 1040 ------- 0 0.0 1.0 33 54
- 0.05512 3 1 tcp 1040 ------- 0 0.0 1.0 33 54
r 0.05536 3 0 ack 40 ------- 0 1.0 0.0 25 66
+ 0.05536 0 3 tcp 1040 ------- 0 0.0 1.0 45 75
r 0.055456 3 1 tcp 1040 ------- 0 0.0 1.0 30 46
+ 0.055456 1 3 ack 40 ------- 0 1.0 0.0 30 76
- 0.055456 1 3 ack 40 ------- 0 1.0 0.0 30 76
- 0.055616 0 3 tcp 1040 ------- 0 0.0 1.0 37 60
r 0.055824 1 3 ack 40 ------- 0 1.0 0.0 28 72
+ 0.055824 3 0 ack 40 ------- 0 1.0 0.0 28 72
- 0.055824 3 0 ack 40 ------- 0 1.0 0.0 28 72
r 0.055952 0 3 tcp 1040 ------- 0 0.0 1.0 34 55
+ 0.055952 3 1 tcp 1040 ------- 0 0.0 1.0 34 55
- 0.055952 3 1 tcp 1040 ------- 0 0.0 1.0 34 55
r 0.056192 3 0 ack 40 ------- 0 1.0 0.0 26 68
+ 0.056192 0 3 tcp 1040 ------- 0 0.0 1.0 46 77
r 0.056288 3 1 tcp 1040 ------- 0 0.0 1.0 31 51
+ 0.056288 1 3 ack 40 ------- 0 1.0 0.0 31 78
- 0.056288 1 3 ack 40 ------- 0 1.0 0.0 31 78
- 0.056448 0 3 tcp 1040 ------- 0 0.0 1.0 38 61
r 0.056656 1 3 ack 40 ------- 0 1.0 0.0 29 74
+ 0.056656 3 0 ack 40 ------- 0 1.0 0.0 29 74
- 0.056656 3 0 ack 40 ------- 0 1.0 0.0 29 74
r 0.056784 0 3 tcp 1040 ------- 0 0.0 1.0 35 57
+ 0.056784 3 1 tcp 1040 ------- 0 0.0 1.0 35 57
- 0.056784 3 1 tcp 1040 ------- 0 0.0 1.0 35 57
r 0.057024 3 0 ack 40 ------- 0 1.0 0.0 27 70
+ 0.057024 0 3 tcp 1040 ------- 0 0.0 1.0 47 79
r 0.05712 3 1 tcp 1040 ------- 0 0.0 1.0 32 52
+ 0.05712 1 3 ack 40 ------- 0 1.0 0.0 32 80
- 0.05712 1 3 ack 40 ------- 0 1.0 0.0 32 80
- 0.05728 0 3 tcp 1040 ------- 0 0.0 1.0 39 63
r 0.057488 1 3 ack 40 ------- 0 1.0 0.0 30 76
+ 0.057488 3 0 ack 40 ------- 0 1.0 0.0 30 76
- 0.057488 3 0 ack 40 ------- 0 1.0 0.0 30 76
r 0.057616 0 3 tcp 1040 ------- 0 0.0 1.0 36 58
+ 0.057616 3 1 tcp 1040 ------- 0 0.0 1.0 36 58
- 0.057616 3 1 tcp 1040 ------- 0 0.0 1.0 36 58
r 0.057856 3 0 ack 40 ------- 0 1.0 0.0 28 72
+ 0.057856 0 3 tcp 1040 ------- 0 0.0 1.0 48 81
r 0.057952 3 1 tcp 1040 ------- 0 0.0 1.0 33 54
+ 0.057952 1 3 ack 40 ------- 0 1.0 0.0 33 82
- 0.057952 1 3 ack 40 ------- 0 1.0 0.0 33 82
- 0.058112 0 3 tcp 1040 ------- 0 0.0 1.0 40 65
r 0.05832 1 3 ack 40 ------- 0 1.0 0.0 31 78
+ 0.05832 3 0 ack 40 ------- 0 1.0 0.0 31 78
- 0.05832 3 0 ack 40 ------- 0 1.0 0.0 31 78
r 0.058448 0 3 tcp 1040 ------- 0 0.0 1.0 37 60
+ 0.058448 3 1 tcp 1040 ------- 0 0.0 1.0 37 60
- 0.058448 3 1 tcp 1040 ------- 0 0.0 1.0 37 60
r 0.058688 3 0 ack 40 ------- 0 1.0 0.0 29 74
+ 0.058688 0 3 tcp 1040 ------- 0 0.0 1.0 49 83
r 0.058784 3 1 tcp 1040 ------- 0 0.0 1.0 34 55
+ 0.058784 1 3 ack 40 ------- 0 1.0 0.0 34 84
- 0.058784 1 3 ack 40 ------- 0 1.0 0.0 34 84
- 0.058944 0 3 tcp 1040 ------- 0 0.0 1.0 41 67
r 0.059152 1 3 ack 40 ------- 0 1.0 0.0 32 80
+ 0.059152 3 0 ack 40 ------- 0 1.0 0.0 32 80
- 0.059152 3 0 ack 40 ------- 0 1.0 0.0 32 80
r 0.05928 0 3 tcp 1040 ------- 0 0.0 1.0 38 61
+ 0.05928 3 1 tcp 1040 ------- 0 0.0 1.0 38 61
- 0.05928 3 1 tcp 1040 ------- 0 0.0 1.0 38 61
r 0.05952 3 0 ack 40 ------- 0 1.0 0.0 30 76
+ 0.05952 0 3 tcp 1040 ------- 0 0.0 1.0 50 85
r 0.059616 3 1 tcp 1040 ------- 0 0.0 1.0 35 57
+ 0.059616 1 3 ack 40 ------- 0 1.0 0.0 35 86
- 0.059616 1 3 ack 40 ------- 0 1.0 0.0 35 86
- 0.059776 0 3 tcp 1040 ------- 0 0.0 1.0 42 69
r 0.059984 1 3 ack 40 ------- 0 1.0 0.0 33 82
+ 0.059984 3 0 ack 40 ------- 0 1.0 0.0 33 82
- 0.059984 3 0 ack 40 ------- 0 1.0 0.0 33 82
r 0.060112 0 3 tcp 1040 ------- 0 0.0 1.0 39 63
+ 0.060112 3 1 tcp 1040 ------- 0 0.0 1.0 39 63
- 0.060112 3 1 tcp 1040 ------- 0 0.0 1.0 39 63
r 0.060352 3 0 ack 40 ------- 0 1.0 0.0 31 78
+ 0.060352 0 3 tcp 1040 ------- 0 0.0 1.0 51 87
r 0.060448 3 1 tcp 1040 ------- 0 0.0 1.0 36 58
+ 0.060448 1 3 ack 40 ------- 0 1.0 0.0 36 88
- 0.060448 1 3 ack 40 ------- 0 1.0 0.0 36 88
- 0.060608 0 3 tcp 1040 ------- 0 0.0 1.0 43 71
r 0.060816 1 3 ack 40 ------- 0 1.0 0.0 34 84
+ 0.060816 3 0 ack 40 ------- 0 1.0 0.0 34 84
- 0.060816 3 0 ack 40 ------- 0 1.0 0.0 34 84
r 0.060944 0 3 tcp 1040 ------- 0 0.0 1.0 40 65
+ 0.060944 3 1 tcp 1040 ------- 0 0.0 1.0 40 65
- 0.060944 3 1 tcp 1040 ------- 0 0.0 1.0 40 65
r 0.061184 3 0 ack 40 ------- 0 1.0 0.0 32 80
+ 0.061184 0 3 tcp 1040 ------- 0 0.0 1.0 52 89
r 0.06128 3 1 tcp 1040 ------- 0 0.0 1.0 37 60
+ 0.06128 1 3 ack 40 ------- 0 1.0 0.0 37 90
- 0.06128 1 3 ack 40 ------- 0 1.0 0.0 37 90
- 0.06144 0 3 tcp 1040 ------- 0 0.0 1.0 44 73
r 0.061648 1 3 ack 40 ------- 0 1.0 0.0 35 86
+ 0.061648 3 0 ack 40 ------- 0 1.0 0.0 35 86
- 0.061648 3 0 ack 40 ------- 0 1.0 0.0 35 86
r 0.061776 0 3 tcp 1040 ------- 0 0.0 1.0 41 67
+ 0.061776 3 1 tcp 1040 ------- 0 0.0 1.0 41 67
- 0.061776 3 1 tcp 1040 ------- 0 0.0 1.0 41 67
r 0.062016 3 0 ack 40 ------- 0 1.0 0.0 33 82
+ 0.062016 0 3 tcp 1040 ------- 0 0.0 1.0 53 91
r 0.062112 3 1 tcp 1040 ------- 0 0.0 1.0 38 61
+ 0.062112 1 3 ack 40 ------- 0 1.0 0.0 38 92
- 0.062112 1 3 ack 40 ------- 0 1.0 0.0 38 92
- 0.062272 0 3 tcp 1040 ------- 0 0.0 1.0 45 75
r 0.06248 1 3 ack 40 ------- 0 1.0 0.0 36 88
+ 0.06248 3 0 ack 40 ------- 0 1.0 0.0 36 88
- 0.06248 3 0 ack 40 ------- 0 1.0 0.0 36 88
r 0.062608 0 3 tcp 1040 ------- 0 0.0 1.0 42 69
+ 0.062608 3 1 tcp 1040 ------- 0 0.0 1.0 42 69
- 0.062608 3 1 tcp 1040 ------- 0 0.0 1.0 42 69
r 0.062848 3 0 ack 40 ------- 0 1.0 0.0 34 84
+ 0.062848 0 3 tcp 1040 ------- 0 0.0 1.0 54 93
r 0.062944 3 1 tcp 1040 ------- 0 0.0 1.0 39 63
+ 0.062944 1 3 ack 40 ------- 0 1.0 0.0 39 94
- 0.062944 1 3 ack 40 ------- 0 1.0 0.0 39 94
- 0.063104 0 3 tcp 1040 ------- 0 0.0 1.0 46 77
r 0.063312 1 3 ack 40 ------- 0 1.0 0.0 37 90
+ 0.063312 3 0 ack 40 ------- 0 1.0 0.0 37 90
- 0.063312 3 0 ack 40 ------- 0 1.0 0.0 37 90
r 0.06344 0 3 tcp 1040 ------- 0 0.0 1.0 43 71
+ 0.06344 3 1 tcp 1040 ------- 0 0.0 1.0 43 71
- 0.06344 3 1 tcp 1040 ------- 0 0.0 1.0 43 71
r 0.06368 3 0 ack 40 ------- 0 1.0 0.0 35 86
+ 0.06368 0 3 tcp 1040 ------- 0 0.0 1.0 55 95
r 0.063776 3 1 tcp 1040 ------- 0 0.0 1.0 40 65
+ 0.063776 1 3 ack 40 ------- 0 1.0 0.0 40 96
- 0.063776 1 3 ack 40 ------- 0 1.0 0.0 40 96
- 0.063936 0 3 tcp 1040 ------- 0 0.0 1.0 47 79
r 0.064144 1 3 ack 40 ------- 0 1.0 0.0 38 92
+ 0.064144 3 0 ack 40 ------- 0 1.0 0.0 38 92
- 0.064144 3 0 ack 40 ------- 0 1.0 0.0 38 92
r 0.064272 0 3 tcp 1040 ------- 0 0.0 1.0 44 73
+ 0.064272 3 1 tcp 1040 ------- 0 0.0 1.0 44 73
- 0.064272 3 1 tcp 1040 ------- 0 0.0 1.0 44 73
r 0.064512 3 0 ack 40 ------- 0 1.0 0.0 36 88
+ 0.064512 0 3 tcp 1040 ------- 0 0.0 1.0 56 97
r 0.064608 3 1 tcp 1040 ------- 0 0.0 1.0 41 67
+ 0.064608 1 3 ack 40 ------- 0 1.0 0.0 41 98
- 0.064608 1 3 ack 40 ------- 0 1.0 0.0 41 98
- 0.064768 0 3 tcp 1040 ------- 0 0.0 1.0 48 81
r 0.064976 1 3 ack 40 ------- 0 1.0 0.0 39 94
+ 0.064976 3 0 ack 40 ------- 0 1.0 0.0 39 94
- 0.064976 3 0 ack 40 ------- 0 1.0 0.0 39 94
r 0.065104 0 3 tcp 1040 ------- 0 0.0 1.0 45 75
+ 0.065104 3 1 tcp 1040 ------- 0 0.0 1.0 45 75
- 0.065104 3 1 tcp 1040 ------- 0 0.0 1.0 45 75
r 0.065344 3 0 ack 40 ------- 0 1.0 0.0 37 90
+ 0.065344 0 3 tcp 1040 ------- 0 0.0 1.0 57 99
r 0.06544 3 1 tcp 1040 ------- 0 0.0 1.0 42 69
+ 0.06544 1 3 ack 40 ------- 0 1.0 0.0 42 100
- 0.06544 1 3 ack 40 ------- 0 1.0 0.0 42 100
- 0.0656 0 3 tcp 1040 ------- 0 0.0 1.0 49 83
r 0.065808 1 3 ack 40 ------- 0 1.0 0.0 40 96
+ 0.065808 3 0 ack 40 ------- 0 1.0 0.0 40 96
- 0.065808 3 0 ack 40 ------- 0 1.0 0.0 40 96
r 0.065936 0 3 tcp 1040 ------- 0 0.0 1.0 46 77
+ 0.065936 3 1 tcp 1040 ------- 0 0.0 1.0 46 77
- 0.065936 3 1 tcp 1040 ------- 0 0.0 1.0 46 77
r 0.066176 3 0 ack 40 ------- 0 1.0 0.0 38 92
+ 0.066176 0 3 tcp 1040 ------- 0 0.0 1.0 58 101
r 0.066272 3 1 tcp 1040 ------- 0 0.0 1.0 43 71
+ 0.066272 1 3 ack 40 ------- 0 1.0 0.0 43 102
- 0.066272 1 3 ack 40 ------- 0 1.0 0.0 43 102
- 0.066432 0 3 tcp 1040 ------- 0 0.0 1.0 50 85
r 0.06664 1 3 ack 40 ------- 0 1.0 0.0 41 98
+ 0.06664 3 0 ack 40 ------- 0 1.0 0.0 41 98
- 0.06664 3 0 ack 40 ------- 0 1.0 0.0 41 98
r 0.066768 0 3 tcp 1040 ------- 0 0.0 1.0 47 79
+ 0.066768 3 1 tcp 1040 ------- 0 0.0 1.0 47 79
- 0.066768 3 1 tcp 1040 ------- 0 0.0 1.0 47 79
r 0.067008 3 0 ack 40 ------- 0 1.0 0.0 39 94
+ 0.067008 0 3 tcp 1040 ------- 0 0.0 1.0 59 103
r 0.067104 3 1 tcp 1040 ------- 0 0.0 1.0 44 73
+ 0.067104 1 3 ack 40 ------- 0 1.0 0.0 44 104
- 0.067104 1 3 ack 40 ------- 0 1.0 0.0 44 104
- 0.067264 0 3 tcp 1040 ------- 0 0.0 1.0 51 87
r 0.067472 1 3 ack 40 ------- 0 1.0 0.0 42 100
+ 0.067472 3 0 ack 40 ------- 0 1.0 0.0 42 100
- 0.067472 3 0 ack 40 ------- 0 1.0 0.0 42 100
r 0.0676 0 3 tcp 1040 ------- 0 0.0 1.0 48 81
+ 0.0676 3 1 tcp 1040 ------- 0 0.0 1.0 48 81
- 0.0676 3 1 tcp 1040 ------- 0 0.0 1.0 48 81
r 0.06784 3 0 ack 40 ------- 0 1.0 0.0 40 96
+ 0.06784 0 3 tcp 1040 ------- 0 0.0 1.0 60 105
r 0.067936 3 1 tcp 1040 ------- 0 0.0 1.0 45 75
+ 0.067936 1 3 ack 40 ------- 0 1.0 0.0 45 106
- 0.067936 1 3 ack 40 ------- 0 1.0 0.0 45 106
- 0.068096 0 3 tcp 1040 ------- 0 0.0 1.0 52 89
r 0.068304 1 3 ack 40 ------- 0 1.0 0.0 43 102
+ 0.068304 3 0 ack 40 ------- 0 1.0 0.0 43 102
- 0.068304 3 0 ack 40 ------- 0 1.0 0.0 43 102
r 0.068432 0 3 tcp 1040 ------- 0 0.0 1.0 49 83
+ 0.068432 3 1 tcp 1040 ------- 0 0.0 1.0 49 83
- 0.068432 3 1 tcp 1040 ------- 0 0.0 1.0 49 83
r 0.068672 3 0 ack 40 ------- 0 1.0 0.0 41 98
+ 0.068672 0 3 tcp 1040 ------- 0 0.0 1.0 61 107
r 0.068768 3 1 tcp 1040 ------- 0 0.0 1.0 46 77
+ 0.068768 1 3 ack 40 ------- 0 1.0 0.0 46 108
- 0.068768 1 3 ack 40 ------- 0 1.0 0.0 46 108
- 0.068928 0 3 tcp 1040 ------- 0 0.0 1.0 53 91
r 0.069136 1 3 ack 40 ------- 0 1.0 0.0 44 104
+ 0.069136 3 0 ack 40 ------- 0 1.0 0.0 44 104
- 0.069136 3 0 ack 40 ------- 0 1.0 0.0 44 104
r 0.069264 0 3 tcp 1040 ------- 0 0.0 1.0 50 85
+ 0.069264 3 1 tcp 1040 ------- 0 0.0 1.0 50 85
- 0.069264 3 1 tcp 1040 ------- 0 0.0 1.0 50 85
r 0.069504 3 0 ack 40 ------- 0 1.0 0.0 42 100
+ 0.069504 0 3 tcp 1040 ------- 0 0.0 1.0 62 109
r 0.0696 3 1 tcp 1040 ------- 0 0.0 1.0 47 79
+ 0.0696 1 3 ack 40 ------- 0 1.0 0.0 47 110
- 0.0696 1 3 ack 40 ------- 0 1.0 0.0 47 110
- 0.06976 0 3 tcp 1040 ------- 0 0.0 1.0 54 93
r 0.069968 1 3 ack 40 ------- 0 1.0 0.0 45 106
+ 0.069968 3 0 ack 40 ------- 0 1.0 0.0 45 106
- 0.069968 3 0 ack 40 ------- 0 1.0 0.0 45 106
r 0.070096 0 3 tcp 1040 ------- 0 0.0 1.0 51 87
+ 0.070096 3 1 tcp 1040 ------- 0 0.0 1.0 51 87
- 0.070096 3 1 tcp 1040 ------- 0 0.0 1.0 51 87
r 0.070336 3 0 ack 40 ------- 0 1.0 0.0 43 102
+ 0.070336 0 3 tcp 1040 ------- 0 0.0 1.0 63 111
r 0.070432 3 1 tcp 1040 ------- 0 0.0 1.0 48 81
+ 0.070432 1 3 ack 40 ------- 0 1.0 0.0 48 112
- 0.070432 1 3 ack 40 ------- 0 1.0 0.0 48 112
- 0.070592 0 3 tcp 1040 ------- 0 0.0 1.0 55 95
r 0.0708 1 3 ack 40 ------- 0 1.0 0.0 46 108
+ 0.0708 3 0 ack 40 ------- 0 1.0 0.0 46 108
- 0.0708 3 0 ack 40 ------- 0 1.0 0.0 46 108
r 0.070928 0 3 tcp 1040 ------- 0 0.0 1.0 52 89
+ 0.070928 3 1 tcp 1040 ------- 0 0.0 1.0 52 89
- 0.070928 3 1 tcp 1040 ------- 0 0.0 1.0 52 89
r 0.071168 3 0 ack 40 ------- 0 1.0 0.0 44 104
+ 0.071168 0 3 tcp 1040 ------- 0 0.0 1.0 64 113
r 0.071264 3 1 tcp 1040 ------- 0 0.0 1.0 49 83
+ 0.071264 1 3 ack 40 ------- 0 1.0 0.0 49 114
- 0.071264 1 3 ack 40 ------- 0 1.0 0.0 49 114
- 0.071424 0 3 tcp 1040 ------- 0 0.0 1.0 56 97
r 0.071632 1 3 ack 40 ------- 0 1.0 0.0 47 110
+ 0.071632 3 0 ack 40 ------- 0 1.0 0.0 47 110
- 0.071632 3 0 ack 40 ------- 0 1.0 0.0 47 110
r 0.07176 0 3 tcp 1040 ------- 0 0.0 1.0 53 91
+ 0.07176 3 1 tcp 1040 ------- 0 0.0 1.0 53 91
- 0.07176 3 1 tcp 1040 ------- 0 0.0 1.0 53 91
r 0.072 3 0 ack 40 ------- 0 1.0 0.0 45 106
+ 0.072 0 3 tcp 1040 ------- 0 0.0 1.0 65 115
r 0.072096 3 1 tcp 1040 ------- 0 0.0 1.0 50 85
+ 0.072096 1 3 ack 40 ------- 0 1.0 0.0 50 116
- 0.072096 1 3 ack 40 ------- 0 1.0 0.0 50 116
- 0.072256 0 3 tcp 1040 ------- 0 0.0 1.0 57 99
r 0.072464 1 3 ack 40 ------- 0 1.0 0.0 48 112
+ 0.072464 3 0 ack 40 ------- 0 1.0 0.0 48 112
- 0.072464 3 0 ack 40 ------- 0 1.0 0.0 48 112
r 0.072592 0 3 tcp 1040 ------- 0 0.0 1.0 54 93
+ 0.072592 3 1 tcp 1040 ------- 0 0.0 1.0 54 93
- 0.072592 3 1 tcp 1040 ------- 0 0.0 1.0 54 93
r 0.072832 3 0 ack 40 ------- 0 1.0 0.0 46 108
+ 0.072832 0 3 tcp 1040 ------- 0 0.0 1.0 66 117
r 0.072928 3 1 tcp 1040 ------- 0 0.0 1.0 51 87
+ 0.072928 1 3 ack 40 ------- 0 1.0 0.0 51 118
- 0.072928 1 3 ack 40 ------- 0 1.0 0.0 51 118
- 0.073088 0 3 tcp 1040 ------- 0 0.0 1.0 58 101
r 0.073296 1 3 ack 40 ------- 0 1.0 0.0 49 114
+ 0.073296 3 0 ack 40 ------- 0 1.0 0.0 49 114